 Entering Gaussian System, Link 0=g09
 Initial command:
 /usr/caen/gaussian-09revc/g09/l1.exe /scratch/avioli_flux/hetanjin/scratch/Gau-124690.inp -scrdir=/scratch/avioli_flux/hetanjin/scratch/
 Entering Link 1 = /usr/caen/gaussian-09revc/g09/l1.exe PID=    124691.
  
 Copyright (c) 1988,1990,1992,1993,1995,1998,2003,2009,2011,
            Gaussian, Inc.  All Rights Reserved.
  
 This is part of the Gaussian(R) 09 program.  It is based on
 the Gaussian(R) 03 system (copyright 2003, Gaussian, Inc.),
 the Gaussian(R) 98 system (copyright 1998, Gaussian, Inc.),
 the Gaussian(R) 94 system (copyright 1995, Gaussian, Inc.),
 the Gaussian 92(TM) system (copyright 1992, Gaussian, Inc.),
 the Gaussian 90(TM) system (copyright 1990, Gaussian, Inc.),
 the Gaussian 88(TM) system (copyright 1988, Gaussian, Inc.),
 the Gaussian 86(TM) system (copyright 1986, Carnegie Mellon
 University), and the Gaussian 82(TM) system (copyright 1983,
 Carnegie Mellon University). Gaussian is a federally registered
 trademark of Gaussian, Inc.
  
 This software contains proprietary and confidential information,
 including trade secrets, belonging to Gaussian, Inc.
  
 This software is provided under written license and may be
 used, copied, transmitted, or stored only in accord with that
 written license.
  
 The following legend is applicable only to US Government
 contracts under FAR:
  
                    RESTRICTED RIGHTS LEGEND
  
 Use, reproduction and disclosure by the US Government is
 subject to restrictions as set forth in subparagraphs (a)
 and (c) of the Commercial Computer Software - Restricted
 Rights clause in FAR 52.227-19.
  
 Gaussian, Inc.
 340 Quinnipiac St., Bldg. 40, Wallingford CT 06492
  
  
 ---------------------------------------------------------------
 Warning -- This program may not be used in any manner that
 competes with the business of Gaussian, Inc. or will provide
 assistance to any competitor of Gaussian, Inc.  The licensee
 of this program is prohibited from giving any competitor of
 Gaussian, Inc. access to this program.  By using this program,
 the user acknowledges that Gaussian, Inc. is engaged in the
 business of creating and licensing software in the field of
 computational chemistry and represents and warrants to the
 licensee that it is not a competitor of Gaussian, Inc. and that
 it will not use this program in any manner prohibited above.
 ---------------------------------------------------------------
  

 Cite this work as:
 Gaussian 09, Revision C.01,
 M. J. Frisch, G. W. Trucks, H. B. Schlegel, G. E. Scuseria, 
 M. A. Robb, J. R. Cheeseman, G. Scalmani, V. Barone, B. Mennucci, 
 G. A. Petersson, H. Nakatsuji, M. Caricato, X. Li, H. P. Hratchian, 
 A. F. Izmaylov, J. Bloino, G. Zheng, J. L. Sonnenberg, M. Hada, 
 M. Ehara, K. Toyota, R. Fukuda, J. Hasegawa, M. Ishida, T. Nakajima, 
 Y. Honda, O. Kitao, H. Nakai, T. Vreven, J. A. Montgomery, Jr., 
 J. E. Peralta, F. Ogliaro, M. Bearpark, J. J. Heyd, E. Brothers, 
 K. N. Kudin, V. N. Staroverov, T. Keith, R. Kobayashi, J. Normand, 
 K. Raghavachari, A. Rendell, J. C. Burant, S. S. Iyengar, J. Tomasi, 
 M. Cossi, N. Rega, J. M. Millam, M. Klene, J. E. Knox, J. B. Cross, 
 V. Bakken, C. Adamo, J. Jaramillo, R. Gomperts, R. E. Stratmann, 
 O. Yazyev, A. J. Austin, R. Cammi, C. Pomelli, J. W. Ochterski, 
 R. L. Martin, K. Morokuma, V. G. Zakrzewski, G. A. Voth, 
 P. Salvador, J. J. Dannenberg, S. Dapprich, A. D. Daniels, 
 O. Farkas, J. B. Foresman, J. V. Ortiz, J. Cioslowski, 
 and D. J. Fox, Gaussian, Inc., Wallingford CT, 2010.
 
 ******************************************
 Gaussian 09:  EM64L-G09RevC.01 23-Sep-2011
                21-Feb-2014 
 ******************************************
 %mem=30GB
 %nprocshared=8
 Will use up to    8 processors via shared memory.
 %chk=TS_1_C9H18O_1.chk
 ----------------------------
 #p ub3lyp/6-311++g(d,p) freq
 ----------------------------
 1/10=4,30=1,38=1/1,3;
 2/12=2,17=6,18=5,40=1/2;
 3/5=4,6=6,7=1111,11=2,16=1,25=1,30=1,71=2,74=-5,116=2/1,2,3;
 4//1;
 5/5=2,38=5,98=1/2;
 8/6=4,10=90,11=11/1;
 11/6=1,8=1,9=11,15=111,16=1/1,2,10;
 10/6=1/2;
 6/7=2,8=2,9=2,10=2,18=1,28=1/1;
 7/8=1,10=1,25=1/1,2,3,16;
 1/10=4,30=1/3;
 99//99;
 Leave Link    1 at Fri Feb 21 13:24:34 2014, MaxMem= 4026531840 cpu:       0.9
 (Enter /usr/caen/gaussian-09revc/g09/l101.exe)
 -----------------------------------------------------
 TS_1_C9H18O_1 using B3LYP/6-311++g(d,p) to calc. freq
 -----------------------------------------------------
 Charge =  0 Multiplicity = 2
 Symbolic Z-Matrix:
 C                    -3.14646  -1.78467  -0.02689 
 H                    -2.81501  -2.82357   0.04992 
 H                    -3.3512   -1.56745  -1.07825 
 H                    -4.08199  -1.68565   0.53023 
 C                    -2.05212  -0.83973   0.52161 
 H                    -1.87294  -1.09959   1.57286 
 C                    -0.7346   -0.99538  -0.26223 
 H                    -0.56684  -2.0657   -0.42768 
 H                    -0.85968  -0.54623  -1.25321 
 C                     0.50086  -0.40318   0.42762 
 H                     0.61887  -0.8641    1.41765 
 H                     0.34917   0.66673   0.59818 
 C                     1.7849   -0.61702  -0.38376 
 H                     1.68594  -0.11528  -1.35584 
 H                     1.88509  -1.68765  -0.60381 
 C                     3.08125  -0.13687   0.29624 
 H                     3.1377   -0.62138   1.28118 
 C                     4.30783  -0.58028  -0.51371 
 H                     4.29916  -0.12917  -1.51215 
 H                     5.23787  -0.279    -0.0226 
 H                     4.3323   -1.66684  -0.64001 
 C                    -2.59666   0.57007   0.52264 
 H                    -3.36406   0.82237   1.26124 
 H                    -1.70794   1.55051   0.68423 
 C                     3.10383   1.38284   0.51577 
 H                     4.03897   1.69367   0.99094 
 H                     3.0242    1.91416  -0.43919 
 H                     2.28391   1.72117   1.1539 
 O                    -2.84051   1.15137  -0.71882 
 O                    -1.88028   2.24966  -0.3801 
 
 NAtoms=     30 NQM=        0 NQMF=       0 NMMI=     30 NMMIF=      0
                NMic=       0 NMicF=      0.
                    Isotopes and Nuclear Properties:
 (Nuclear quadrupole moments (NQMom) in fm**2, nuclear magnetic moments (NMagM)
  in nuclear magnetons)

  Atom         1           2           3           4           5           6           7           8           9          10
 IAtWgt=          12           1           1           1          12           1          12           1           1          12
 AtmWgt=  12.0000000   1.0078250   1.0078250   1.0078250  12.0000000   1.0078250  12.0000000   1.0078250   1.0078250  12.0000000
 NucSpn=           0           1           1           1           0           1           0           1           1           0
 AtZEff=   0.0000000   0.0000000   0.0000000   0.0000000   0.0000000   0.0000000   0.0000000   0.0000000   0.0000000   0.0000000
 NQMom=    0.0000000   0.0000000   0.0000000   0.0000000   0.0000000   0.0000000   0.0000000   0.0000000   0.0000000   0.0000000
 NMagM=    0.0000000   2.7928460   2.7928460   2.7928460   0.0000000   2.7928460   0.0000000   2.7928460   2.7928460   0.0000000

  Atom        11          12          13          14          15          16          17          18          19          20
 IAtWgt=           1           1          12           1           1          12           1          12           1           1
 AtmWgt=   1.0078250   1.0078250  12.0000000   1.0078250   1.0078250  12.0000000   1.0078250  12.0000000   1.0078250   1.0078250
 NucSpn=           1           1           0           1           1           0           1           0           1           1
 AtZEff=   0.0000000   0.0000000   0.0000000   0.0000000   0.0000000   0.0000000   0.0000000   0.0000000   0.0000000   0.0000000
 NQMom=    0.0000000   0.0000000   0.0000000   0.0000000   0.0000000   0.0000000   0.0000000   0.0000000   0.0000000   0.0000000
 NMagM=    2.7928460   2.7928460   0.0000000   2.7928460   2.7928460   0.0000000   2.7928460   0.0000000   2.7928460   2.7928460

  Atom        21          22          23          24          25          26          27          28          29          30
 IAtWgt=           1          12           1           1          12           1           1           1          16          16
 AtmWgt=   1.0078250  12.0000000   1.0078250   1.0078250  12.0000000   1.0078250   1.0078250   1.0078250  15.9949146  15.9949146
 NucSpn=           1           0           1           1           0           1           1           1           0           0
 AtZEff=   0.0000000   0.0000000   0.0000000   0.0000000   0.0000000   0.0000000   0.0000000   0.0000000   0.0000000   0.0000000
 NQMom=    0.0000000   0.0000000   0.0000000   0.0000000   0.0000000   0.0000000   0.0000000   0.0000000   0.0000000   0.0000000
 NMagM=    2.7928460   0.0000000   2.7928460   2.7928460   0.0000000   2.7928460   2.7928460   2.7928460   0.0000000   0.0000000
 Leave Link  101 at Fri Feb 21 13:24:34 2014, MaxMem= 4026531840 cpu:       0.4
 (Enter /usr/caen/gaussian-09revc/g09/l103.exe)

 GradGradGradGradGradGradGradGradGradGradGradGradGradGradGradGradGradGrad
 Berny optimization.
 Initialization pass.
 Trust Radius=3.00D-01 FncErr=1.00D-07 GrdErr=1.00D-07
 Number of steps in this run=      2 maximum allowed number of steps=      2.
 GradGradGradGradGradGradGradGradGradGradGradGradGradGradGradGradGradGrad

 Leave Link  103 at Fri Feb 21 13:24:34 2014, MaxMem= 4026531840 cpu:       0.2
 (Enter /usr/caen/gaussian-09revc/g09/l202.exe)
                          Input orientation:                          
 ---------------------------------------------------------------------
 Center     Atomic      Atomic             Coordinates (Angstroms)
 Number     Number       Type             X           Y           Z
 ---------------------------------------------------------------------
      1          6           0       -3.146458   -1.784668   -0.026887
      2          1           0       -2.815013   -2.823568    0.049918
      3          1           0       -3.351204   -1.567450   -1.078248
      4          1           0       -4.081987   -1.685653    0.530230
      5          6           0       -2.052123   -0.839727    0.521607
      6          1           0       -1.872944   -1.099591    1.572857
      7          6           0       -0.734603   -0.995376   -0.262229
      8          1           0       -0.566838   -2.065701   -0.427677
      9          1           0       -0.859676   -0.546226   -1.253210
     10          6           0        0.500857   -0.403179    0.427618
     11          1           0        0.618869   -0.864097    1.417652
     12          1           0        0.349169    0.666732    0.598179
     13          6           0        1.784895   -0.617015   -0.383755
     14          1           0        1.685937   -0.115280   -1.355843
     15          1           0        1.885087   -1.687645   -0.603809
     16          6           0        3.081248   -0.136874    0.296236
     17          1           0        3.137701   -0.621377    1.281182
     18          6           0        4.307828   -0.580282   -0.513714
     19          1           0        4.299162   -0.129168   -1.512145
     20          1           0        5.237865   -0.278999   -0.022599
     21          1           0        4.332295   -1.666843   -0.640013
     22          6           0       -2.596663    0.570070    0.522637
     23          1           0       -3.364063    0.822368    1.261239
     24          1           0       -1.707941    1.550511    0.684225
     25          6           0        3.103829    1.382841    0.515772
     26          1           0        4.038975    1.693670    0.990941
     27          1           0        3.024197    1.914160   -0.439189
     28          1           0        2.283907    1.721166    1.153896
     29          8           0       -2.840511    1.151372   -0.718818
     30          8           0       -1.880284    2.249659   -0.380095
 ---------------------------------------------------------------------
                    Distance matrix (angstroms):
                    1          2          3          4          5
     1  C    0.000000
     2  H    1.093192   0.000000
     3  H    1.092916   1.771466   0.000000
     4  H    1.093343   1.769399   1.770654   0.000000
     5  C    1.546392   2.177181   2.185573   2.199094   0.000000
     6  H    2.156467   2.485746   3.071238   2.512053   1.097616
     7  C    2.548610   2.787082   2.799957   3.508483   1.540936
     8  H    2.625653   2.420072   2.902446   3.663099   2.147143
     9  H    2.875235   3.272273   2.698374   3.855158   2.158251
    10  C    3.926575   4.122613   4.296689   4.760013   2.591740
    11  H    4.136645   4.183512   4.741909   4.853918   2.817390
    12  H    4.315029   4.742872   4.636242   5.017318   2.835751
    13  C    5.080257   5.120166   5.269266   6.033047   3.948669
    14  H    5.282520   5.437788   5.249633   6.268356   4.245319
    15  H    5.065441   4.879408   5.259114   6.073880   4.181764
    16  C    6.450113   6.484203   6.731433   7.332490   5.186164
    17  H    6.523415   6.465328   6.969064   7.336246   5.249658
    18  C    7.566632   7.488984   7.742995   8.526468   6.448890
    19  H    7.770710   7.766036   7.796475   8.765706   6.706703
    20  H    8.518446   8.445646   8.749092   9.441607   7.331746
    21  H    7.504769   7.273103   7.696628   8.495291   6.541733
    22  C    2.479726   3.433354   2.775096   2.700839   1.511308
    23  H    2.916035   3.880928   3.344338   2.709236   2.242945
    24  H    3.701139   4.556371   3.940597   4.016537   2.420360
    25  C    7.028064   7.276234   7.274103   7.813566   5.614596
    26  H    8.047686   8.262452   8.338537   8.808070   6.613611
    27  H    7.206130   7.535361   7.292170   8.024729   5.854575
    28  H    6.570691   6.918985   6.895791   7.247067   5.075344
    29  O    3.031947   4.048673   2.789622   3.339176   2.474810
    30  O    4.243082   5.176511   4.149861   4.600312   3.222872
                    6          7          8          9         10
     6  H    0.000000
     7  C    2.161995   0.000000
     8  H    2.577095   1.095953   0.000000
     9  H    3.052799   1.095181   1.753871   0.000000
    10  C    2.726077   1.533932   2.153017   2.167186   0.000000
    11  H    2.507724   2.161278   2.500998   3.069306   1.098426
    12  H    3.001280   2.162745   3.059026   2.521947   1.093988
    13  C    4.176242   2.550646   2.762475   2.784730   1.533886
    14  H    4.712938   2.798138   3.120998   2.583872   2.160563
    15  H    4.382520   2.731060   2.487144   3.042743   2.151694
    16  C    5.205824   3.950902   4.189625   4.254319   2.597421
    17  H    5.041857   4.185299   4.327803   4.733689   2.780131
    18  C    6.544112   5.065734   5.096689   5.220260   3.925621
    19  H    6.968059   5.258460   5.348288   5.182142   4.273743
    20  H    7.333652   6.020049   6.086951   6.226220   4.759975
    21  H    6.612379   5.125138   4.919927   5.346808   4.173320
    22  C    2.101071   2.556150   3.459852   2.723394   3.248211
    23  H    2.452441   3.541074   4.360946   3.803611   4.139384
    24  H    2.799988   2.885256   3.951637   2.978173   2.959990
    25  C    5.661110   4.582004   5.124093   4.749734   3.158022
    26  H    6.564428   5.620360   6.112190   5.835249   4.151191
    27  H    6.092045   4.756605   5.360500   4.669111   3.533930
    28  H    5.040993   4.300746   4.996847   4.562602   2.866983
    29  O    3.354817   3.041685   3.950179   2.662916   3.859493
    30  O    3.877054   3.443360   4.511068   3.101765   3.655104
                   11         12         13         14         15
    11  H    0.000000
    12  H    1.757189   0.000000
    13  C    2.160031   2.161830   0.000000
    14  H    3.064578   2.493330   1.098401   0.000000
    15  H    2.523459   3.057272   1.097593   1.754294   0.000000
    16  C    2.801738   2.863775   1.540602   2.162573   2.155405
    17  H    2.534177   3.146685   2.145255   3.052483   2.501831
    18  C    4.173625   4.296781   2.526545   2.792798   2.665341
    19  H    4.761133   4.548557   2.798713   2.617932   3.013583
    20  H    4.873580   5.017880   3.488222   3.797438   3.682826
    21  H    4.320639   4.779538   2.767138   3.150075   2.447564
    22  C    3.632841   2.948385   4.629122   4.726421   5.143174
    23  H    4.328092   3.775177   5.593711   5.764616   6.110004
    24  H    3.432534   2.240574   4.247194   4.295945   5.005451
    25  C    3.469459   2.847412   2.558937   2.785270   3.488077
    26  H    4.292013   3.850134   3.508551   3.783713   4.314598
    27  H    4.117302   3.128575   2.818828   2.598042   3.781226
    28  H    3.086341   2.272414   2.842617   3.166843   3.855979
    29  O    4.538053   3.484740   4.963249   4.743305   5.514029
    30  O    4.378714   2.903987   4.653103   4.388958   5.452562
                   16         17         18         19         20
    16  C    0.000000
    17  H    1.099113   0.000000
    18  C    1.535294   2.143021   0.000000
    19  H    2.180279   3.064953   1.095647   0.000000
    20  H    2.184686   2.495547   1.094045   1.767020   0.000000
    21  H    2.186890   2.492197   1.094150   1.768094   1.768437
    22  C    5.726229   5.905749   7.075968   7.223688   7.899242
    23  H    6.587367   6.660160   7.998487   8.205004   8.766665
    24  H    5.092557   5.343566   6.493444   6.612915   7.217405
    25  C    1.535656   2.145668   2.522560   2.797756   2.757837
    26  H    2.179621   2.501195   2.739914   3.107390   2.521116
    27  H    2.179643   3.066188   2.806333   2.636657   3.143854
    28  H    2.196280   2.496532   3.489103   3.820048   3.756417
    29  O    6.144684   6.548409   7.357951   7.296854   8.233519
    30  O    5.547050   6.015219   6.805817   6.717582   7.562404
                   21         22         23         24         25
    21  H    0.000000
    22  C    7.373330   0.000000
    23  H    8.309324   1.094573   0.000000
    24  H    6.970611   1.333117   1.898915   0.000000
    25  C    3.485045   5.758147   6.534790   4.817636   0.000000
    26  H    3.746878   6.746368   7.459035   5.756875   1.094028
    27  H    3.817726   5.858819   6.700249   4.877236   1.095715
    28  H    4.346563   5.054055   5.720046   4.023004   1.092675
    29  O    7.706990   1.392331   2.074362   1.846769   6.075604
    30  O    7.348652   2.036945   2.633009   1.285024   5.137639
                   26         27         28         29         30
    26  H    0.000000
    27  H    1.767388   0.000000
    28  H    1.762831   1.767257   0.000000
    29  O    7.109479   5.920713   5.485561   0.000000
    30  O    6.101352   4.916298   4.469107   1.497666   0.000000
 Stoichiometry    C9H19O2(2)
 Framework group  C1[X(C9H19O2)]
 Deg. of freedom    84
 Full point group                 C1      NOp   1
 Largest Abelian subgroup         C1      NOp   1
 Largest concise Abelian subgroup C1      NOp   1
                         Standard orientation:                         
 ---------------------------------------------------------------------
 Center     Atomic      Atomic             Coordinates (Angstroms)
 Number     Number       Type             X           Y           Z
 ---------------------------------------------------------------------
      1          6           0       -3.146458   -1.784668   -0.026887
      2          1           0       -2.815013   -2.823568    0.049918
      3          1           0       -3.351204   -1.567450   -1.078248
      4          1           0       -4.081987   -1.685653    0.530230
      5          6           0       -2.052123   -0.839727    0.521607
      6          1           0       -1.872944   -1.099591    1.572857
      7          6           0       -0.734603   -0.995376   -0.262229
      8          1           0       -0.566838   -2.065701   -0.427677
      9          1           0       -0.859676   -0.546226   -1.253210
     10          6           0        0.500857   -0.403179    0.427618
     11          1           0        0.618869   -0.864097    1.417652
     12          1           0        0.349169    0.666732    0.598179
     13          6           0        1.784895   -0.617015   -0.383755
     14          1           0        1.685937   -0.115280   -1.355843
     15          1           0        1.885087   -1.687645   -0.603809
     16          6           0        3.081248   -0.136874    0.296236
     17          1           0        3.137701   -0.621377    1.281182
     18          6           0        4.307828   -0.580282   -0.513714
     19          1           0        4.299162   -0.129168   -1.512145
     20          1           0        5.237865   -0.278999   -0.022599
     21          1           0        4.332295   -1.666843   -0.640013
     22          6           0       -2.596663    0.570070    0.522637
     23          1           0       -3.364063    0.822368    1.261239
     24          1           0       -1.707941    1.550511    0.684225
     25          6           0        3.103829    1.382841    0.515772
     26          1           0        4.038975    1.693670    0.990941
     27          1           0        3.024197    1.914160   -0.439189
     28          1           0        2.283907    1.721166    1.153896
     29          8           0       -2.840511    1.151372   -0.718818
     30          8           0       -1.880284    2.249659   -0.380095
 ---------------------------------------------------------------------
 Rotational constants (GHZ):      1.7707155      0.4387974      0.3770210
 Leave Link  202 at Fri Feb 21 13:24:34 2014, MaxMem= 4026531840 cpu:       0.2
 (Enter /usr/caen/gaussian-09revc/g09/l301.exe)
 Standard basis: 6-311++G(d,p) (5D, 7F)
 Ernie: Thresh=  0.10000D-02 Tol=  0.10000D-05 Strict=F.
 There are   375 symmetry adapted basis functions of A   symmetry.
 Integral buffers will be    131072 words long.
 Raffenetti 2 integral format.
 Two-electron integral symmetry is turned on.
   375 basis functions,   567 primitive gaussians,   386 cartesian basis functions
    45 alpha electrons       44 beta electrons
       nuclear repulsion energy       648.1423973100 Hartrees.
 IExCor=  402 DFT=T Ex+Corr=B3LYP ExCW=0 ScaHFX=  0.200000
 ScaDFX=  0.800000  0.720000  1.000000  0.810000 ScalE2=  1.000000  1.000000
 IRadAn=      0 IRanWt=     -1 IRanGd=            0 ICorTp=0
 NAtoms=   30 NActive=   30 NUniq=   30 SFac= 1.00D+00 NAtFMM=   60 NAOKFM=F Big=F
 Leave Link  301 at Fri Feb 21 13:24:35 2014, MaxMem= 4026531840 cpu:       0.5
 (Enter /usr/caen/gaussian-09revc/g09/l302.exe)
 NPDir=0 NMtPBC=     1 NCelOv=     1 NCel=       1 NClECP=     1 NCelD=      1
         NCelK=      1 NCelE2=     1 NClLst=     1 CellRange=     0.0.
 One-electron integrals computed using PRISM.
 NBasis=   375 RedAO= T  NBF=   375
 NBsUse=   375 1.00D-06 NBFU=   375
 Precomputing XC quadrature grid using
 IXCGrd= 2 IRadAn=           0 IRanWt=          -1 IRanGd=           0 AccXCQ= 0.00D+00.
 NRdTot=    1960 NPtTot=      250122 NUsed=      264245 NTot=      264277
 NSgBfM=   386   386   386   386   386 NAtAll=    30    30.
 Leave Link  302 at Fri Feb 21 13:24:35 2014, MaxMem= 4026531840 cpu:       3.4
 (Enter /usr/caen/gaussian-09revc/g09/l303.exe)
 DipDrv:  MaxL=1.
 Leave Link  303 at Fri Feb 21 13:24:35 2014, MaxMem= 4026531840 cpu:       0.5
 (Enter /usr/caen/gaussian-09revc/g09/l401.exe)
 Harris functional with IExCor=  402 diagonalized for initial guess.
 ExpMin= 3.60D-02 ExpMax= 8.59D+03 ExpMxC= 1.30D+03 IAcc=3 IRadAn=         5 AccDes= 0.00D+00
 HarFok:  IExCor=  402 AccDes= 0.00D+00 IRadAn=         5 IDoV= 1
 ScaDFX=  1.000000  1.000000  1.000000  1.000000
 FoFCou: FMM=F IPFlag=           0 FMFlag=      100000 FMFlg1=           0
         NFxFlg=           0 DoJE=T BraDBF=F KetDBF=T FulRan=T
         Omega=  0.000000  0.000000  1.000000  0.000000  0.000000 ICntrl=     500 IOpCl=  0
         NMat0=    1 NMatS0=    1 NMatT0=    0 NMatD0=    1 NMtDS0=    0 NMtDT0=    0
         I1Cent=           4 NGrid=           0.
 Petite list used in FoFCou.
 Harris En= -504.854903509417    
 Initial guess orbital symmetries:
 Alpha Orbitals:
       Occupied  (A) (A) (A) (A) (A) (A) (A) (A) (A) (A) (A) (A)
                 (A) (A) (A) (A) (A) (A) (A) (A) (A) (A) (A) (A)
                 (A) (A) (A) (A) (A) (A) (A) (A) (A) (A) (A) (A)
                 (A) (A) (A) (A) (A) (A) (A) (A) (A)
       Virtual   (A) (A) (A) (A) (A) (A) (A) (A) (A) (A) (A) (A)
                 (A) (A) (A) (A) (A) (A) (A) (A) (A) (A) (A) (A)
                 (A) (A) (A) (A) (A) (A) (A) (A) (A) (A) (A) (A)
                 (A) (A) (A) (A) (A) (A) (A) (A) (A) (A) (A) (A)
                 (A) (A) (A) (A) (A) (A) (A) (A) (A) (A) (A) (A)
                 (A) (A) (A) (A) (A) (A) (A) (A) (A) (A) (A) (A)
                 (A) (A) (A) (A) (A) (A) (A) (A) (A) (A) (A) (A)
                 (A) (A) (A) (A) (A) (A) (A) (A) (A) (A) (A) (A)
                 (A) (A) (A) (A) (A) (A) (A) (A) (A) (A) (A) (A)
                 (A) (A) (A) (A) (A) (A) (A) (A) (A) (A) (A) (A)
                 (A) (A) (A) (A) (A) (A) (A) (A) (A) (A) (A) (A)
                 (A) (A) (A) (A) (A) (A) (A) (A) (A) (A) (A) (A)
                 (A) (A) (A) (A) (A) (A) (A) (A) (A) (A) (A) (A)
                 (A) (A) (A) (A) (A) (A) (A) (A) (A) (A) (A) (A)
                 (A) (A) (A) (A) (A) (A) (A) (A) (A) (A) (A) (A)
                 (A) (A) (A) (A) (A) (A) (A) (A) (A) (A) (A) (A)
                 (A) (A) (A) (A) (A) (A) (A) (A) (A) (A) (A) (A)
                 (A) (A) (A) (A) (A) (A) (A) (A) (A) (A) (A) (A)
                 (A) (A) (A) (A) (A) (A) (A) (A) (A) (A) (A) (A)
                 (A) (A) (A) (A) (A) (A) (A) (A) (A) (A) (A) (A)
                 (A) (A) (A) (A) (A) (A) (A) (A) (A) (A) (A) (A)
                 (A) (A) (A) (A) (A) (A) (A) (A) (A) (A) (A) (A)
                 (A) (A) (A) (A) (A) (A) (A) (A) (A) (A) (A) (A)
                 (A) (A) (A) (A) (A) (A) (A) (A) (A) (A) (A) (A)
                 (A) (A) (A) (A) (A) (A) (A) (A) (A) (A) (A) (A)
                 (A) (A) (A) (A) (A) (A) (A) (A) (A) (A) (A) (A)
                 (A) (A) (A) (A) (A) (A) (A) (A) (A) (A) (A) (A)
                 (A) (A) (A) (A) (A) (A)
 Beta  Orbitals:
       Occupied  (A) (A) (A) (A) (A) (A) (A) (A) (A) (A) (A) (A)
                 (A) (A) (A) (A) (A) (A) (A) (A) (A) (A) (A) (A)
                 (A) (A) (A) (A) (A) (A) (A) (A) (A) (A) (A) (A)
                 (A) (A) (A) (A) (A) (A) (A) (A)
       Virtual   (A) (A) (A) (A) (A) (A) (A) (A) (A) (A) (A) (A)
                 (A) (A) (A) (A) (A) (A) (A) (A) (A) (A) (A) (A)
                 (A) (A) (A) (A) (A) (A) (A) (A) (A) (A) (A) (A)
                 (A) (A) (A) (A) (A) (A) (A) (A) (A) (A) (A) (A)
                 (A) (A) (A) (A) (A) (A) (A) (A) (A) (A) (A) (A)
                 (A) (A) (A) (A) (A) (A) (A) (A) (A) (A) (A) (A)
                 (A) (A) (A) (A) (A) (A) (A) (A) (A) (A) (A) (A)
                 (A) (A) (A) (A) (A) (A) (A) (A) (A) (A) (A) (A)
                 (A) (A) (A) (A) (A) (A) (A) (A) (A) (A) (A) (A)
                 (A) (A) (A) (A) (A) (A) (A) (A) (A) (A) (A) (A)
                 (A) (A) (A) (A) (A) (A) (A) (A) (A) (A) (A) (A)
                 (A) (A) (A) (A) (A) (A) (A) (A) (A) (A) (A) (A)
                 (A) (A) (A) (A) (A) (A) (A) (A) (A) (A) (A) (A)
                 (A) (A) (A) (A) (A) (A) (A) (A) (A) (A) (A) (A)
                 (A) (A) (A) (A) (A) (A) (A) (A) (A) (A) (A) (A)
                 (A) (A) (A) (A) (A) (A) (A) (A) (A) (A) (A) (A)
                 (A) (A) (A) (A) (A) (A) (A) (A) (A) (A) (A) (A)
                 (A) (A) (A) (A) (A) (A) (A) (A) (A) (A) (A) (A)
                 (A) (A) (A) (A) (A) (A) (A) (A) (A) (A) (A) (A)
                 (A) (A) (A) (A) (A) (A) (A) (A) (A) (A) (A) (A)
                 (A) (A) (A) (A) (A) (A) (A) (A) (A) (A) (A) (A)
                 (A) (A) (A) (A) (A) (A) (A) (A) (A) (A) (A) (A)
                 (A) (A) (A) (A) (A) (A) (A) (A) (A) (A) (A) (A)
                 (A) (A) (A) (A) (A) (A) (A) (A) (A) (A) (A) (A)
                 (A) (A) (A) (A) (A) (A) (A) (A) (A) (A) (A) (A)
                 (A) (A) (A) (A) (A) (A) (A) (A) (A) (A) (A) (A)
                 (A) (A) (A) (A) (A) (A) (A) (A) (A) (A) (A) (A)
                 (A) (A) (A) (A) (A) (A) (A)
 The electronic state of the initial guess is 2-A.
 Initial guess <Sx>= 0.0000 <Sy>= 0.0000 <Sz>= 0.5000 <S**2>= 0.7500 S= 0.5000
 Leave Link  401 at Fri Feb 21 13:24:39 2014, MaxMem= 4026531840 cpu:      27.2
 (Enter /usr/caen/gaussian-09revc/g09/l502.exe)
 UHF open shell SCF:
 Requested convergence on RMS density matrix=1.00D-08 within 128 cycles.
 Requested convergence on MAX density matrix=1.00D-06.
 Requested convergence on             energy=1.00D-06.
 No special actions if energy rises.
 Using DIIS extrapolation, IDIIS=  1040.
 Integral symmetry usage will be decided dynamically.
       263962 words used for storage of precomputed grid.
 IEnd=      735096 IEndB=      735096 NGot=  4026531840 MDV=  4025962767
 LenX=  4025962767 LenY=  4025813330
 Fock matrices will be formed incrementally for  20 cycles.

 Cycle   1  Pass 1  IDiag  1:
 FoFCou: FMM=F IPFlag=           0 FMFlag=      100000 FMFlg1=           0
         NFxFlg=           0 DoJE=F BraDBF=F KetDBF=F FulRan=T
         Omega=  0.000000  0.000000  1.000000  0.000000  0.000000 ICntrl=       0 IOpCl=  1
         NMat0=    1 NMatS0=    1 NMatT0=    0 NMatD0=    1 NMtDS0=    0 NMtDT0=    0
         I1Cent=           0 NGrid=           0.
 Symmetry not used in FoFCou.
 E= -504.440853994235    
 DIIS: error= 3.13D-02 at cycle   1 NSaved=   1.
 NSaved= 1 IEnMin= 1 EnMin= -504.440853994235     IErMin= 1 ErrMin= 3.13D-02
 ErrMax= 3.13D-02 EMaxC= 1.00D-01 BMatC= 1.44D+00 BMatP= 1.44D+00
 IDIUse=3 WtCom= 6.87D-01 WtEn= 3.13D-01
 Coeff-Com:  0.100D+01
 Coeff-En:   0.100D+01
 Coeff:      0.100D+01
 Gap=     0.226 Goal=   None    Shift=    0.000
 Gap=     0.129 Goal=   None    Shift=    0.000
 GapD=    0.129 DampG=1.000 DampE=0.500 DampFc=0.5000 IDamp=-1.
 Damping current iteration by 5.00D-01
 RMSDP=1.41D-02 MaxDP=1.70D+00              OVMax= 2.24D-01

 Cycle   2  Pass 1  IDiag  1:
 RMSU=  3.14D-03    CP:  8.10D-01
 E= -504.586813358005     Delta-E=       -0.145959363771 Rises=F Damp=T
 DIIS: error= 4.42D-03 at cycle   2 NSaved=   2.
 NSaved= 2 IEnMin= 2 EnMin= -504.586813358005     IErMin= 2 ErrMin= 4.42D-03
 ErrMax= 4.42D-03 EMaxC= 1.00D-01 BMatC= 8.48D-02 BMatP= 1.44D+00
 IDIUse=3 WtCom= 9.56D-01 WtEn= 4.42D-02
 Coeff-Com:  0.751D-01 0.925D+00
 Coeff-En:   0.185D+00 0.815D+00
 Coeff:      0.799D-01 0.920D+00
 Gap=     0.315 Goal=   None    Shift=    0.000
 Gap=     0.193 Goal=   None    Shift=    0.000
 RMSDP=4.04D-03 MaxDP=3.45D-01 DE=-1.46D-01 OVMax= 1.77D-01

 Cycle   3  Pass 1  IDiag  1:
 RMSU=  2.62D-03    CP:  8.51D-01  7.62D-01
 E= -504.794454673315     Delta-E=       -0.207641315310 Rises=F Damp=F
 DIIS: error= 4.66D-03 at cycle   3 NSaved=   3.
 NSaved= 3 IEnMin= 3 EnMin= -504.794454673315     IErMin= 2 ErrMin= 4.42D-03
 ErrMax= 4.66D-03 EMaxC= 1.00D-01 BMatC= 3.40D-02 BMatP= 8.48D-02
 IDIUse=3 WtCom= 9.53D-01 WtEn= 4.66D-02
 Coeff-Com: -0.214D-01 0.351D+00 0.670D+00
 Coeff-En:   0.000D+00 0.000D+00 0.100D+01
 Coeff:     -0.204D-01 0.335D+00 0.685D+00
 Gap=     0.246 Goal=   None    Shift=    0.000
 Gap=     0.126 Goal=   None    Shift=    0.000
 RMSDP=3.59D-03 MaxDP=6.88D-01 DE=-2.08D-01 OVMax= 3.48D-02

 Cycle   4  Pass 1  IDiag  1:
 RMSU=  1.40D-03    CP:  7.66D-01  7.08D-01  4.91D-01
 E= -504.797531909445     Delta-E=       -0.003077236131 Rises=F Damp=F
 DIIS: error= 5.75D-03 at cycle   4 NSaved=   4.
 NSaved= 4 IEnMin= 4 EnMin= -504.797531909445     IErMin= 2 ErrMin= 4.42D-03
 ErrMax= 5.75D-03 EMaxC= 1.00D-01 BMatC= 2.66D-02 BMatP= 3.40D-02
 IDIUse=3 WtCom= 9.42D-01 WtEn= 5.75D-02
 Coeff-Com: -0.257D-01 0.146D+00 0.478D+00 0.402D+00
 Coeff-En:   0.000D+00 0.000D+00 0.387D+00 0.613D+00
 Coeff:     -0.242D-01 0.137D+00 0.473D+00 0.414D+00
 Gap=     0.235 Goal=   None    Shift=    0.000
 Gap=     0.128 Goal=   None    Shift=    0.000
 RMSDP=1.27D-03 MaxDP=1.89D-01 DE=-3.08D-03 OVMax= 2.90D-02

 Cycle   5  Pass 1  IDiag  1:
 RMSU=  3.60D-04    CP:  7.75D-01  8.01D-01  6.99D-01  6.30D-01
 E= -504.802051111210     Delta-E=       -0.004519201765 Rises=F Damp=F
 DIIS: error= 2.40D-03 at cycle   5 NSaved=   5.
 NSaved= 5 IEnMin= 5 EnMin= -504.802051111210     IErMin= 5 ErrMin= 2.40D-03
 ErrMax= 2.40D-03 EMaxC= 1.00D-01 BMatC= 3.46D-03 BMatP= 2.66D-02
 IDIUse=3 WtCom= 9.76D-01 WtEn= 2.40D-02
 Coeff-Com: -0.130D-01 0.355D-01 0.197D+00 0.288D+00 0.493D+00
 Coeff-En:   0.000D+00 0.000D+00 0.000D+00 0.121D+00 0.879D+00
 Coeff:     -0.127D-01 0.347D-01 0.192D+00 0.284D+00 0.502D+00
 Gap=     0.234 Goal=   None    Shift=    0.000
 Gap=     0.126 Goal=   None    Shift=    0.000
 RMSDP=4.79D-04 MaxDP=7.85D-02 DE=-4.52D-03 OVMax= 6.15D-03

 Cycle   6  Pass 1  IDiag  1:
 RMSU=  7.10D-05    CP:  7.71D-01  7.60D-01  6.42D-01  7.67D-01  5.63D-01
 E= -504.802710724099     Delta-E=       -0.000659612889 Rises=F Damp=F
 DIIS: error= 4.80D-04 at cycle   6 NSaved=   6.
 NSaved= 6 IEnMin= 6 EnMin= -504.802710724099     IErMin= 6 ErrMin= 4.80D-04
 ErrMax= 4.80D-04 EMaxC= 1.00D-01 BMatC= 2.42D-04 BMatP= 3.46D-03
 IDIUse=3 WtCom= 9.95D-01 WtEn= 4.80D-03
 Coeff-Com: -0.236D-02-0.440D-02 0.236D-01 0.855D-01 0.263D+00 0.635D+00
 Coeff-En:   0.000D+00 0.000D+00 0.000D+00 0.000D+00 0.000D+00 0.100D+01
 Coeff:     -0.235D-02-0.438D-02 0.235D-01 0.851D-01 0.262D+00 0.637D+00
 Gap=     0.234 Goal=   None    Shift=    0.000
 Gap=     0.128 Goal=   None    Shift=    0.000
 RMSDP=1.12D-04 MaxDP=2.23D-02 DE=-6.60D-04 OVMax= 9.03D-03

 Cycle   7  Pass 1  IDiag  1:
 RMSU=  5.59D-05    CP:  7.73D-01  7.66D-01  6.51D-01  7.45D-01  5.76D-01
                    CP:  8.06D-01
 E= -504.802787172995     Delta-E=       -0.000076448896 Rises=F Damp=F
 DIIS: error= 2.54D-04 at cycle   7 NSaved=   7.
 NSaved= 7 IEnMin= 7 EnMin= -504.802787172995     IErMin= 7 ErrMin= 2.54D-04
 ErrMax= 2.54D-04 EMaxC= 1.00D-01 BMatC= 3.99D-05 BMatP= 2.42D-04
 IDIUse=3 WtCom= 9.97D-01 WtEn= 2.54D-03
 Coeff-Com:  0.104D-02-0.714D-02-0.198D-01-0.657D-02 0.237D-01 0.276D+00
 Coeff-Com:  0.733D+00
 Coeff-En:   0.000D+00 0.000D+00 0.000D+00 0.000D+00 0.000D+00 0.000D+00
 Coeff-En:   0.100D+01
 Coeff:      0.104D-02-0.712D-02-0.198D-01-0.656D-02 0.236D-01 0.275D+00
 Coeff:      0.734D+00
 Gap=     0.234 Goal=   None    Shift=    0.000
 Gap=     0.128 Goal=   None    Shift=    0.000
 RMSDP=4.53D-05 MaxDP=5.31D-03 DE=-7.64D-05 OVMax= 6.19D-03

 Cycle   8  Pass 1  IDiag  1:
 RMSU=  2.29D-05    CP:  7.72D-01  7.64D-01  6.49D-01  7.54D-01  5.92D-01
                    CP:  9.63D-01  1.05D+00
 E= -504.802811205409     Delta-E=       -0.000024032414 Rises=F Damp=F
 DIIS: error= 1.37D-04 at cycle   8 NSaved=   8.
 NSaved= 8 IEnMin= 8 EnMin= -504.802811205409     IErMin= 8 ErrMin= 1.37D-04
 ErrMax= 1.37D-04 EMaxC= 1.00D-01 BMatC= 1.74D-05 BMatP= 3.99D-05
 IDIUse=3 WtCom= 9.99D-01 WtEn= 1.37D-03
 Coeff-Com:  0.171D-02-0.236D-02-0.228D-01-0.374D-01-0.103D+00-0.868D-01
 Coeff-Com:  0.458D+00 0.793D+00
 Coeff-En:   0.000D+00 0.000D+00 0.000D+00 0.000D+00 0.000D+00 0.000D+00
 Coeff-En:   0.000D+00 0.100D+01
 Coeff:      0.171D-02-0.235D-02-0.227D-01-0.374D-01-0.103D+00-0.867D-01
 Coeff:      0.457D+00 0.794D+00
 Gap=     0.234 Goal=   None    Shift=    0.000
 Gap=     0.129 Goal=   None    Shift=    0.000
 RMSDP=5.60D-05 MaxDP=8.59D-03 DE=-2.40D-05 OVMax= 7.40D-03

 Cycle   9  Pass 1  IDiag  1:
 RMSU=  1.25D-05    CP:  7.71D-01  7.60D-01  6.43D-01  7.65D-01  5.83D-01
                    CP:  1.14D+00  1.28D+00  1.35D+00
 E= -504.802827192701     Delta-E=       -0.000015987291 Rises=F Damp=F
 DIIS: error= 6.87D-05 at cycle   9 NSaved=   9.
 NSaved= 9 IEnMin= 9 EnMin= -504.802827192701     IErMin= 9 ErrMin= 6.87D-05
 ErrMax= 6.87D-05 EMaxC= 1.00D-01 BMatC= 2.42D-06 BMatP= 1.74D-05
 IDIUse=1 WtCom= 1.00D+00 WtEn= 0.00D+00
 Coeff-Com:  0.460D-05 0.114D-02 0.438D-03-0.397D-02-0.267D-01-0.733D-01
 Coeff-Com: -0.841D-01 0.150D+00 0.104D+01
 Coeff:      0.460D-05 0.114D-02 0.438D-03-0.397D-02-0.267D-01-0.733D-01
 Coeff:     -0.841D-01 0.150D+00 0.104D+01
 Gap=     0.233 Goal=   None    Shift=    0.000
 Gap=     0.129 Goal=   None    Shift=    0.000
 RMSDP=2.42D-05 MaxDP=1.29D-03 DE=-1.60D-05 OVMax= 4.93D-03

 Cycle  10  Pass 1  IDiag  1:
 RMSU=  7.92D-06    CP:  7.71D-01  7.60D-01  6.42D-01  7.66D-01  5.81D-01
                    CP:  1.22D+00  1.43D+00  1.66D+00  1.47D+00
 E= -504.802832151742     Delta-E=       -0.000004959042 Rises=F Damp=F
 DIIS: error= 3.76D-05 at cycle  10 NSaved=  10.
 NSaved=10 IEnMin=10 EnMin= -504.802832151742     IErMin=10 ErrMin= 3.76D-05
 ErrMax= 3.76D-05 EMaxC= 1.00D-01 BMatC= 7.79D-07 BMatP= 2.42D-06
 IDIUse=1 WtCom= 1.00D+00 WtEn= 0.00D+00
 Coeff-Com: -0.549D-03 0.119D-02 0.775D-02 0.103D-01 0.247D-01 0.905D-02
 Coeff-Com: -0.194D+00-0.176D+00 0.321D+00 0.997D+00
 Coeff:     -0.549D-03 0.119D-02 0.775D-02 0.103D-01 0.247D-01 0.905D-02
 Coeff:     -0.194D+00-0.176D+00 0.321D+00 0.997D+00
 Gap=     0.233 Goal=   None    Shift=    0.000
 Gap=     0.129 Goal=   None    Shift=    0.000
 RMSDP=1.71D-05 MaxDP=1.18D-03 DE=-4.96D-06 OVMax= 3.32D-03

 Cycle  11  Pass 1  IDiag  1:
 RMSU=  3.58D-06    CP:  7.71D-01  7.60D-01  6.42D-01  7.66D-01  5.86D-01
                    CP:  1.29D+00  1.49D+00  1.93D+00  1.94D+00  1.19D+00
 E= -504.802833822391     Delta-E=       -0.000001670649 Rises=F Damp=F
 DIIS: error= 1.57D-05 at cycle  11 NSaved=  11.
 NSaved=11 IEnMin=11 EnMin= -504.802833822391     IErMin=11 ErrMin= 1.57D-05
 ErrMax= 1.57D-05 EMaxC= 1.00D-01 BMatC= 2.33D-07 BMatP= 7.79D-07
 IDIUse=1 WtCom= 1.00D+00 WtEn= 0.00D+00
 Coeff-Com: -0.182D-03 0.166D-03 0.288D-02 0.443D-02 0.160D-01 0.241D-01
 Coeff-Com: -0.583D-01-0.754D-01-0.176D+00 0.357D+00 0.905D+00
 Coeff:     -0.182D-03 0.166D-03 0.288D-02 0.443D-02 0.160D-01 0.241D-01
 Coeff:     -0.583D-01-0.754D-01-0.176D+00 0.357D+00 0.905D+00
 Gap=     0.233 Goal=   None    Shift=    0.000
 Gap=     0.129 Goal=   None    Shift=    0.000
 RMSDP=8.89D-06 MaxDP=7.87D-04 DE=-1.67D-06 OVMax= 1.54D-03

 Cycle  12  Pass 1  IDiag  1:
 RMSU=  1.76D-06    CP:  7.71D-01  7.60D-01  6.42D-01  7.67D-01  5.89D-01
                    CP:  1.32D+00  1.50D+00  2.07D+00  2.15D+00  1.44D+00
                    CP:  1.33D+00
 E= -504.802834178217     Delta-E=       -0.000000355827 Rises=F Damp=F
 DIIS: error= 7.37D-06 at cycle  12 NSaved=  12.
 NSaved=12 IEnMin=12 EnMin= -504.802834178217     IErMin=12 ErrMin= 7.37D-06
 ErrMax= 7.37D-06 EMaxC= 1.00D-01 BMatC= 6.16D-08 BMatP= 2.33D-07
 IDIUse=1 WtCom= 1.00D+00 WtEn= 0.00D+00
 Coeff-Com:  0.524D-04-0.209D-03-0.479D-03-0.517D-03 0.132D-02 0.868D-02
 Coeff-Com:  0.161D-01 0.182D-01-0.164D+00-0.833D-01 0.419D+00 0.785D+00
 Coeff:      0.524D-04-0.209D-03-0.479D-03-0.517D-03 0.132D-02 0.868D-02
 Coeff:      0.161D-01 0.182D-01-0.164D+00-0.833D-01 0.419D+00 0.785D+00
 Gap=     0.233 Goal=   None    Shift=    0.000
 Gap=     0.129 Goal=   None    Shift=    0.000
 RMSDP=4.05D-06 MaxDP=3.57D-04 DE=-3.56D-07 OVMax= 6.61D-04

 Cycle  13  Pass 1  IDiag  1:
 RMSU=  1.09D-06    CP:  7.71D-01  7.60D-01  6.42D-01  7.66D-01  5.89D-01
                    CP:  1.33D+00  1.51D+00  2.12D+00  2.24D+00  1.57D+00
                    CP:  1.49D+00  1.06D+00
 E= -504.802834253735     Delta-E=       -0.000000075517 Rises=F Damp=F
 DIIS: error= 3.24D-06 at cycle  13 NSaved=  13.
 NSaved=13 IEnMin=13 EnMin= -504.802834253735     IErMin=13 ErrMin= 3.24D-06
 ErrMax= 3.24D-06 EMaxC= 1.00D-01 BMatC= 9.50D-09 BMatP= 6.16D-08
 IDIUse=1 WtCom= 1.00D+00 WtEn= 0.00D+00
 Coeff-Com:  0.462D-04-0.808D-04-0.716D-03-0.991D-03-0.303D-02-0.271D-02
 Coeff-Com:  0.148D-01 0.237D-01-0.399D-02-0.105D+00-0.968D-01 0.186D+00
 Coeff-Com:  0.990D+00
 Coeff:      0.462D-04-0.808D-04-0.716D-03-0.991D-03-0.303D-02-0.271D-02
 Coeff:      0.148D-01 0.237D-01-0.399D-02-0.105D+00-0.968D-01 0.186D+00
 Coeff:      0.990D+00
 Gap=     0.233 Goal=   None    Shift=    0.000
 Gap=     0.129 Goal=   None    Shift=    0.000
 RMSDP=2.02D-06 MaxDP=1.59D-04 DE=-7.55D-08 OVMax= 3.35D-04

 Cycle  14  Pass 1  IDiag  1:
 RMSU=  5.20D-07    CP:  7.71D-01  7.60D-01  6.42D-01  7.66D-01  5.90D-01
                    CP:  1.34D+00  1.52D+00  2.15D+00  2.27D+00  1.61D+00
                    CP:  1.62D+00  1.30D+00  1.10D+00
 E= -504.802834271486     Delta-E=       -0.000000017751 Rises=F Damp=F
 DIIS: error= 1.98D-06 at cycle  14 NSaved=  14.
 NSaved=14 IEnMin=14 EnMin= -504.802834271486     IErMin=14 ErrMin= 1.98D-06
 ErrMax= 1.98D-06 EMaxC= 1.00D-01 BMatC= 2.36D-09 BMatP= 9.50D-09
 IDIUse=1 WtCom= 1.00D+00 WtEn= 0.00D+00
 Coeff-Com:  0.504D-06 0.229D-04-0.117D-03-0.160D-03-0.123D-02-0.240D-02
 Coeff-Com:  0.680D-03 0.336D-02 0.332D-01-0.117D-01-0.116D+00-0.124D+00
 Coeff-Com:  0.262D+00 0.957D+00
 Coeff:      0.504D-06 0.229D-04-0.117D-03-0.160D-03-0.123D-02-0.240D-02
 Coeff:      0.680D-03 0.336D-02 0.332D-01-0.117D-01-0.116D+00-0.124D+00
 Coeff:      0.262D+00 0.957D+00
 Gap=     0.233 Goal=   None    Shift=    0.000
 Gap=     0.129 Goal=   None    Shift=    0.000
 RMSDP=1.04D-06 MaxDP=1.67D-04 DE=-1.78D-08 OVMax= 1.42D-04

 Cycle  15  Pass 1  IDiag  1:
 RMSU=  2.25D-07    CP:  7.71D-01  7.60D-01  6.42D-01  7.66D-01  5.90D-01
                    CP:  1.34D+00  1.52D+00  2.16D+00  2.29D+00  1.62D+00
                    CP:  1.67D+00  1.38D+00  1.33D+00  1.17D+00
 E= -504.802834275175     Delta-E=       -0.000000003689 Rises=F Damp=F
 DIIS: error= 9.62D-07 at cycle  15 NSaved=  15.
 NSaved=15 IEnMin=15 EnMin= -504.802834275175     IErMin=15 ErrMin= 9.62D-07
 ErrMax= 9.62D-07 EMaxC= 1.00D-01 BMatC= 6.53D-10 BMatP= 2.36D-09
 IDIUse=1 WtCom= 1.00D+00 WtEn= 0.00D+00
 Coeff-Com: -0.125D-04 0.326D-04 0.157D-03 0.207D-03 0.309D-03-0.194D-03
 Coeff-Com: -0.377D-02-0.512D-02 0.139D-01 0.247D-01-0.208D-01-0.977D-01
 Coeff-Com: -0.170D+00 0.365D+00 0.893D+00
 Coeff:     -0.125D-04 0.326D-04 0.157D-03 0.207D-03 0.309D-03-0.194D-03
 Coeff:     -0.377D-02-0.512D-02 0.139D-01 0.247D-01-0.208D-01-0.977D-01
 Coeff:     -0.170D+00 0.365D+00 0.893D+00
 Gap=     0.233 Goal=   None    Shift=    0.000
 Gap=     0.129 Goal=   None    Shift=    0.000
 RMSDP=4.03D-07 MaxDP=2.59D-05 DE=-3.69D-09 OVMax= 6.43D-05

 Cycle  16  Pass 1  IDiag  1:
 RMSU=  1.07D-07    CP:  7.71D-01  7.60D-01  6.42D-01  7.66D-01  5.90D-01
                    CP:  1.34D+00  1.52D+00  2.17D+00  2.30D+00  1.64D+00
                    CP:  1.68D+00  1.43D+00  1.40D+00  1.41D+00  1.22D+00
 E= -504.802834275926     Delta-E=       -0.000000000751 Rises=F Damp=F
 DIIS: error= 2.62D-07 at cycle  16 NSaved=  16.
 NSaved=16 IEnMin=16 EnMin= -504.802834275926     IErMin=16 ErrMin= 2.62D-07
 ErrMax= 2.62D-07 EMaxC= 1.00D-01 BMatC= 9.67D-11 BMatP= 6.53D-10
 IDIUse=1 WtCom= 1.00D+00 WtEn= 0.00D+00
 Coeff-Com: -0.201D-05 0.211D-05 0.577D-04 0.760D-04 0.287D-03 0.419D-03
 Coeff-Com: -0.822D-03-0.201D-02-0.332D-02 0.900D-02 0.178D-01-0.787D-03
 Coeff-Com: -0.104D+00-0.988D-01 0.281D+00 0.901D+00
 Coeff:     -0.201D-05 0.211D-05 0.577D-04 0.760D-04 0.287D-03 0.419D-03
 Coeff:     -0.822D-03-0.201D-02-0.332D-02 0.900D-02 0.178D-01-0.787D-03
 Coeff:     -0.104D+00-0.988D-01 0.281D+00 0.901D+00
 Gap=     0.233 Goal=   None    Shift=    0.000
 Gap=     0.129 Goal=   None    Shift=    0.000
 RMSDP=1.69D-07 MaxDP=2.00D-05 DE=-7.51D-10 OVMax= 1.81D-05

 Cycle  17  Pass 1  IDiag  1:
 RMSU=  4.40D-08    CP:  7.71D-01  7.60D-01  6.42D-01  7.66D-01  5.90D-01
                    CP:  1.34D+00  1.52D+00  2.17D+00  2.30D+00  1.64D+00
                    CP:  1.69D+00  1.43D+00  1.42D+00  1.49D+00  1.38D+00
                    CP:  9.71D-01
 E= -504.802834276004     Delta-E=       -0.000000000078 Rises=F Damp=F
 DIIS: error= 9.02D-08 at cycle  17 NSaved=  17.
 NSaved=17 IEnMin=17 EnMin= -504.802834276004     IErMin=17 ErrMin= 9.02D-08
 ErrMax= 9.02D-08 EMaxC= 1.00D-01 BMatC= 8.97D-12 BMatP= 9.67D-11
 IDIUse=1 WtCom= 1.00D+00 WtEn= 0.00D+00
 Coeff-Com:  0.875D-06-0.310D-05-0.154D-05 0.264D-05 0.398D-04 0.111D-03
 Coeff-Com:  0.202D-03-0.890D-04-0.217D-02-0.332D-03 0.688D-02 0.100D-01
 Coeff-Com: -0.852D-02-0.617D-01-0.266D-01 0.228D+00 0.855D+00
 Coeff:      0.875D-06-0.310D-05-0.154D-05 0.264D-05 0.398D-04 0.111D-03
 Coeff:      0.202D-03-0.890D-04-0.217D-02-0.332D-03 0.688D-02 0.100D-01
 Coeff:     -0.852D-02-0.617D-01-0.266D-01 0.228D+00 0.855D+00
 Gap=     0.233 Goal=   None    Shift=    0.000
 Gap=     0.129 Goal=   None    Shift=    0.000
 RMSDP=3.55D-08 MaxDP=3.02D-06 DE=-7.82D-11 OVMax= 2.74D-06

 Cycle  18  Pass 1  IDiag  1:
 RMSU=  1.24D-08    CP:  7.71D-01  7.60D-01  6.42D-01  7.66D-01  5.90D-01
                    CP:  1.34D+00  1.52D+00  2.17D+00  2.30D+00  1.64D+00
                    CP:  1.69D+00  1.43D+00  1.42D+00  1.50D+00  1.41D+00
                    CP:  1.10D+00  1.06D+00
 E= -504.802834276011     Delta-E=       -0.000000000007 Rises=F Damp=F
 DIIS: error= 2.44D-08 at cycle  18 NSaved=  18.
 NSaved=18 IEnMin=18 EnMin= -504.802834276011     IErMin=18 ErrMin= 2.44D-08
 ErrMax= 2.44D-08 EMaxC= 1.00D-01 BMatC= 1.40D-12 BMatP= 8.97D-12
 IDIUse=1 WtCom= 1.00D+00 WtEn= 0.00D+00
 Coeff-Com:  0.435D-06-0.126D-05-0.575D-05-0.426D-05-0.115D-04-0.730D-06
 Coeff-Com:  0.152D-03 0.115D-03-0.429D-03-0.907D-03 0.904D-03 0.353D-02
 Coeff-Com:  0.598D-02-0.113D-01-0.352D-01-0.148D-02 0.284D+00 0.755D+00
 Coeff:      0.435D-06-0.126D-05-0.575D-05-0.426D-05-0.115D-04-0.730D-06
 Coeff:      0.152D-03 0.115D-03-0.429D-03-0.907D-03 0.904D-03 0.353D-02
 Coeff:      0.598D-02-0.113D-01-0.352D-01-0.148D-02 0.284D+00 0.755D+00
 Gap=     0.233 Goal=   None    Shift=    0.000
 Gap=     0.129 Goal=   None    Shift=    0.000
 RMSDP=1.25D-08 MaxDP=2.11D-06 DE=-6.82D-12 OVMax= 6.10D-07

 Cycle  19  Pass 1  IDiag  1:
 RMSU=  3.61D-09    CP:  7.71D-01  7.60D-01  6.42D-01  7.66D-01  5.90D-01
                    CP:  1.34D+00  1.52D+00  2.17D+00  2.30D+00  1.64D+00
                    CP:  1.69D+00  1.44D+00  1.42D+00  1.50D+00  1.42D+00
                    CP:  1.12D+00  1.16D+00  1.18D+00
 E= -504.802834276014     Delta-E=       -0.000000000003 Rises=F Damp=F
 DIIS: error= 1.27D-08 at cycle  19 NSaved=  19.
 NSaved=19 IEnMin=19 EnMin= -504.802834276014     IErMin=19 ErrMin= 1.27D-08
 ErrMax= 1.27D-08 EMaxC= 1.00D-01 BMatC= 3.33D-13 BMatP= 1.40D-12
 IDIUse=1 WtCom= 1.00D+00 WtEn= 0.00D+00
 Coeff-Com: -0.157D-07 0.865D-07-0.200D-05-0.178D-05-0.115D-04-0.203D-04
 Coeff-Com:  0.251D-04 0.543D-04 0.227D-03-0.293D-03-0.861D-03-0.435D-03
 Coeff-Com:  0.395D-02 0.729D-02-0.949D-02-0.439D-01-0.526D-01 0.314D+00
 Coeff-Com:  0.782D+00
 Coeff:     -0.157D-07 0.865D-07-0.200D-05-0.178D-05-0.115D-04-0.203D-04
 Coeff:      0.251D-04 0.543D-04 0.227D-03-0.293D-03-0.861D-03-0.435D-03
 Coeff:      0.395D-02 0.729D-02-0.949D-02-0.439D-01-0.526D-01 0.314D+00
 Coeff:      0.782D+00
 Gap=     0.233 Goal=   None    Shift=    0.000
 Gap=     0.129 Goal=   None    Shift=    0.000
 RMSDP=6.53D-09 MaxDP=8.11D-07 DE=-2.73D-12 OVMax= 5.33D-07

 SCF Done:  E(UB3LYP) =  -504.802834276     A.U. after   19 cycles
             Convg  =    0.6533D-08             -V/T =  2.0045
 <Sx>= 0.0000 <Sy>= 0.0000 <Sz>= 0.5000 <S**2>= 0.7584 S= 0.5042
 <L.S>= 0.000000000000E+00
 KE= 5.025583261652D+02 PE=-2.471806745814D+03 EE= 8.163031880623D+02
 Annihilation of the first spin contaminant:
 S**2 before annihilation     0.7584,   after     0.7500
 Leave Link  502 at Fri Feb 21 13:29:48 2014, MaxMem= 4026531840 cpu:    2435.5
 (Enter /usr/caen/gaussian-09revc/g09/l801.exe)
 Range of M.O.s used for correlation:     1   375
 NBasis=   375 NAE=    45 NBE=    44 NFC=     0 NFV=     0
 NROrb=    375 NOA=    45 NOB=    44 NVA=   330 NVB=   331

 **** Warning!!: The largest alpha MO coefficient is  0.13963250D+03


 **** Warning!!: The largest beta MO coefficient is  0.13289949D+03

 Leave Link  801 at Fri Feb 21 13:29:48 2014, MaxMem= 4026531840 cpu:       0.3
 (Enter /usr/caen/gaussian-09revc/g09/l1101.exe)
 Using compressed storage, NAtomX=    30.
 Will process  31 centers per pass.
 Leave Link 1101 at Fri Feb 21 13:29:49 2014, MaxMem= 4026531840 cpu:       4.8
 (Enter /usr/caen/gaussian-09revc/g09/l1102.exe)
 Symmetrizing basis deriv contribution to polar:
 IMax=3 JMax=2 DiffMx= 0.00D+00
 Leave Link 1102 at Fri Feb 21 13:29:49 2014, MaxMem= 4026531840 cpu:       0.4
 (Enter /usr/caen/gaussian-09revc/g09/l1110.exe)
 Forming Gx(P) for the SCF density, NAtomX=    30.
 Integral derivatives from FoFDir/FoFCou, PRISM(SPDF).
 Do as many integral derivatives as possible in FoFDir.
 G2DrvN: MDV=    4026531496.
 G2DrvN: will do    31 centers at a time, making    1 passes doing MaxLOS=2.
 Calling FoFCou, ICntrl=  3107 FMM=F I1Cent=   0 AccDes= 0.00D+00.
 FoFCou: FMM=F IPFlag=           0 FMFlag=      100000 FMFlg1=           0
         NFxFlg=           0 DoJE=F BraDBF=F KetDBF=F FulRan=T
         Omega=  0.000000  0.000000  1.000000  0.000000  0.000000 ICntrl=    3107 IOpCl=  1
         NMat0=    1 NMatS0=    1 NMatT0=    0 NMatD0=    1 NMtDS0=    0 NMtDT0=    0
         I1Cent=           0 NGrid=           0.
 Symmetry not used in FoFCou.
 FoFDir/FoFCou used for L=0 through L=2.
 End of G2Drv Frequency-dependent properties file   721 does not exist.
 End of G2Drv Frequency-dependent properties file   722 does not exist.
 Leave Link 1110 at Fri Feb 21 13:33:50 2014, MaxMem= 4026531840 cpu:    1918.6
 (Enter /usr/caen/gaussian-09revc/g09/l1002.exe)
 Minotr:  UHF open shell wavefunction.
          IDoAtm=111111111111111111111111111111
          Direct CPHF calculation.
          Differentiating once with respect to electric field.
                with respect to dipole field.
          Differentiating once with respect to nuclear coordinates.
          Requested convergence is 1.0D-08 RMS, and 1.0D-07 maximum.
          Secondary convergence is 1.0D-12 RMS, and 1.0D-12 maximum.
          NewPWx=T KeepS1=F KeepF1=F KeepIn=T MapXYZ=F SortEE=F KeepMc=T.
          MDV=    4026531536 using IRadAn=       2.
 Generate precomputed XC quadrature information.
          Solving linear equations simultaneously, MaxMat=       0.
 Integrals replicated using symmetry in FoFDir.
 MinBra= 0 MaxBra= 2 Meth= 1.
 IRaf=       0 NMat=  93 IRICut=     232 DoRegI=T DoRafI=T ISym2E= 2 JSym2E=2.
          There are    93 degrees of freedom in the 1st order CPHF.  IDoFFX=5.
     90 vectors produced by pass  0 Test12= 3.16D-14 1.08D-09 XBig12= 1.98D+02 4.00D+00.
 AX will form    90 AO Fock derivatives at one time.
     90 vectors produced by pass  1 Test12= 3.16D-14 1.08D-09 XBig12= 4.82D+01 1.11D+00.
     90 vectors produced by pass  2 Test12= 3.16D-14 1.08D-09 XBig12= 4.59D-01 7.97D-02.
     90 vectors produced by pass  3 Test12= 3.16D-14 1.08D-09 XBig12= 2.40D-03 6.92D-03.
     90 vectors produced by pass  4 Test12= 3.16D-14 1.08D-09 XBig12= 1.27D-05 2.84D-04.
     80 vectors produced by pass  5 Test12= 3.16D-14 1.08D-09 XBig12= 4.26D-08 1.61D-05.
     40 vectors produced by pass  6 Test12= 3.16D-14 1.08D-09 XBig12= 1.59D-10 7.57D-07.
     18 vectors produced by pass  7 Test12= 3.16D-14 1.08D-09 XBig12= 4.35D-12 1.91D-07.
     16 vectors produced by pass  8 Test12= 3.16D-14 1.08D-09 XBig12= 2.50D-13 6.81D-08.
      8 vectors produced by pass  9 Test12= 3.16D-14 1.08D-09 XBig12= 1.93D-15 3.27D-09.
      1 vectors produced by pass 10 Test12= 3.16D-14 1.08D-09 XBig12= 1.92D-16 1.39D-09.
 Inverted reduced A of dimension   613 with in-core refinement.
 FullF1:  Do perturbations    1 to     3.
 Isotropic polarizability for W=    0.000000      123.30 Bohr**3.
 End of Minotr Frequency-dependent properties file   721 does not exist.
 End of Minotr Frequency-dependent properties file   722 does not exist.
 Leave Link 1002 at Fri Feb 21 13:57:18 2014, MaxMem= 4026531840 cpu:   11241.9
 (Enter /usr/caen/gaussian-09revc/g09/l601.exe)
 Copying SCF densities to generalized density rwf, IOpCl= 1 IROHF=0.

 **********************************************************************

            Population analysis using the SCF density.

 **********************************************************************

 Orbital symmetries:
 Alpha Orbitals:
       Occupied  (A) (A) (A) (A) (A) (A) (A) (A) (A) (A) (A) (A)
                 (A) (A) (A) (A) (A) (A) (A) (A) (A) (A) (A) (A)
                 (A) (A) (A) (A) (A) (A) (A) (A) (A) (A) (A) (A)
                 (A) (A) (A) (A) (A) (A) (A) (A) (A)
       Virtual   (A) (A) (A) (A) (A) (A) (A) (A) (A) (A) (A) (A)
                 (A) (A) (A) (A) (A) (A) (A) (A) (A) (A) (A) (A)
                 (A) (A) (A) (A) (A) (A) (A) (A) (A) (A) (A) (A)
                 (A) (A) (A) (A) (A) (A) (A) (A) (A) (A) (A) (A)
                 (A) (A) (A) (A) (A) (A) (A) (A) (A) (A) (A) (A)
                 (A) (A) (A) (A) (A) (A) (A) (A) (A) (A) (A) (A)
                 (A) (A) (A) (A) (A) (A) (A) (A) (A) (A) (A) (A)
                 (A) (A) (A) (A) (A) (A) (A) (A) (A) (A) (A) (A)
                 (A) (A) (A) (A) (A) (A) (A) (A) (A) (A) (A) (A)
                 (A) (A) (A) (A) (A) (A) (A) (A) (A) (A) (A) (A)
                 (A) (A) (A) (A) (A) (A) (A) (A) (A) (A) (A) (A)
                 (A) (A) (A) (A) (A) (A) (A) (A) (A) (A) (A) (A)
                 (A) (A) (A) (A) (A) (A) (A) (A) (A) (A) (A) (A)
                 (A) (A) (A) (A) (A) (A) (A) (A) (A) (A) (A) (A)
                 (A) (A) (A) (A) (A) (A) (A) (A) (A) (A) (A) (A)
                 (A) (A) (A) (A) (A) (A) (A) (A) (A) (A) (A) (A)
                 (A) (A) (A) (A) (A) (A) (A) (A) (A) (A) (A) (A)
                 (A) (A) (A) (A) (A) (A) (A) (A) (A) (A) (A) (A)
                 (A) (A) (A) (A) (A) (A) (A) (A) (A) (A) (A) (A)
                 (A) (A) (A) (A) (A) (A) (A) (A) (A) (A) (A) (A)
                 (A) (A) (A) (A) (A) (A) (A) (A) (A) (A) (A) (A)
                 (A) (A) (A) (A) (A) (A) (A) (A) (A) (A) (A) (A)
                 (A) (A) (A) (A) (A) (A) (A) (A) (A) (A) (A) (A)
                 (A) (A) (A) (A) (A) (A) (A) (A) (A) (A) (A) (A)
                 (A) (A) (A) (A) (A) (A) (A) (A) (A) (A) (A) (A)
                 (A) (A) (A) (A) (A) (A) (A) (A) (A) (A) (A) (A)
                 (A) (A) (A) (A) (A) (A) (A) (A) (A) (A) (A) (A)
                 (A) (A) (A) (A) (A) (A)
 Beta  Orbitals:
       Occupied  (A) (A) (A) (A) (A) (A) (A) (A) (A) (A) (A) (A)
                 (A) (A) (A) (A) (A) (A) (A) (A) (A) (A) (A) (A)
                 (A) (A) (A) (A) (A) (A) (A) (A) (A) (A) (A) (A)
                 (A) (A) (A) (A) (A) (A) (A) (A)
       Virtual   (A) (A) (A) (A) (A) (A) (A) (A) (A) (A) (A) (A)
                 (A) (A) (A) (A) (A) (A) (A) (A) (A) (A) (A) (A)
                 (A) (A) (A) (A) (A) (A) (A) (A) (A) (A) (A) (A)
                 (A) (A) (A) (A) (A) (A) (A) (A) (A) (A) (A) (A)
                 (A) (A) (A) (A) (A) (A) (A) (A) (A) (A) (A) (A)
                 (A) (A) (A) (A) (A) (A) (A) (A) (A) (A) (A) (A)
                 (A) (A) (A) (A) (A) (A) (A) (A) (A) (A) (A) (A)
                 (A) (A) (A) (A) (A) (A) (A) (A) (A) (A) (A) (A)
                 (A) (A) (A) (A) (A) (A) (A) (A) (A) (A) (A) (A)
                 (A) (A) (A) (A) (A) (A) (A) (A) (A) (A) (A) (A)
                 (A) (A) (A) (A) (A) (A) (A) (A) (A) (A) (A) (A)
                 (A) (A) (A) (A) (A) (A) (A) (A) (A) (A) (A) (A)
                 (A) (A) (A) (A) (A) (A) (A) (A) (A) (A) (A) (A)
                 (A) (A) (A) (A) (A) (A) (A) (A) (A) (A) (A) (A)
                 (A) (A) (A) (A) (A) (A) (A) (A) (A) (A) (A) (A)
                 (A) (A) (A) (A) (A) (A) (A) (A) (A) (A) (A) (A)
                 (A) (A) (A) (A) (A) (A) (A) (A) (A) (A) (A) (A)
                 (A) (A) (A) (A) (A) (A) (A) (A) (A) (A) (A) (A)
                 (A) (A) (A) (A) (A) (A) (A) (A) (A) (A) (A) (A)
                 (A) (A) (A) (A) (A) (A) (A) (A) (A) (A) (A) (A)
                 (A) (A) (A) (A) (A) (A) (A) (A) (A) (A) (A) (A)
                 (A) (A) (A) (A) (A) (A) (A) (A) (A) (A) (A) (A)
                 (A) (A) (A) (A) (A) (A) (A) (A) (A) (A) (A) (A)
                 (A) (A) (A) (A) (A) (A) (A) (A) (A) (A) (A) (A)
                 (A) (A) (A) (A) (A) (A) (A) (A) (A) (A) (A) (A)
                 (A) (A) (A) (A) (A) (A) (A) (A) (A) (A) (A) (A)
                 (A) (A) (A) (A) (A) (A) (A) (A) (A) (A) (A) (A)
                 (A) (A) (A) (A) (A) (A) (A)
 The electronic state is 2-A.
 Alpha  occ. eigenvalues --  -19.20162 -19.19311 -10.26248 -10.20146 -10.17799
 Alpha  occ. eigenvalues --  -10.17502 -10.17468 -10.16991 -10.16546 -10.15736
 Alpha  occ. eigenvalues --  -10.15661  -1.13657  -0.90076  -0.83057  -0.80942
 Alpha  occ. eigenvalues --   -0.75739  -0.69762  -0.68469  -0.68284  -0.61491
 Alpha  occ. eigenvalues --   -0.58603  -0.56137  -0.52209  -0.51419  -0.48045
 Alpha  occ. eigenvalues --   -0.46915  -0.44940  -0.44219  -0.43414  -0.42476
 Alpha  occ. eigenvalues --   -0.41345  -0.40383  -0.39708  -0.38620  -0.38229
 Alpha  occ. eigenvalues --   -0.37148  -0.36102  -0.35677  -0.34619  -0.33933
 Alpha  occ. eigenvalues --   -0.32491  -0.32287  -0.31538  -0.27200  -0.26259
 Alpha virt. eigenvalues --   -0.02942  -0.01436  -0.00407   0.00148   0.00780
 Alpha virt. eigenvalues --    0.01580   0.01839   0.02547   0.03455   0.03513
 Alpha virt. eigenvalues --    0.04018   0.04461   0.05078   0.05396   0.05926
 Alpha virt. eigenvalues --    0.06433   0.06750   0.07544   0.08161   0.08575
 Alpha virt. eigenvalues --    0.08692   0.08922   0.10377   0.10564   0.10838
 Alpha virt. eigenvalues --    0.11299   0.11435   0.11492   0.11790   0.11912
 Alpha virt. eigenvalues --    0.12407   0.12935   0.13157   0.13585   0.13979
 Alpha virt. eigenvalues --    0.13997   0.14278   0.14729   0.14918   0.15297
 Alpha virt. eigenvalues --    0.15324   0.15919   0.16817   0.17087   0.17223
 Alpha virt. eigenvalues --    0.17392   0.17713   0.18013   0.18349   0.18884
 Alpha virt. eigenvalues --    0.19414   0.19591   0.20235   0.20559   0.21126
 Alpha virt. eigenvalues --    0.21297   0.21515   0.21942   0.22049   0.22728
 Alpha virt. eigenvalues --    0.23014   0.24140   0.24337   0.24702   0.24846
 Alpha virt. eigenvalues --    0.25658   0.25859   0.26483   0.27393   0.27907
 Alpha virt. eigenvalues --    0.28322   0.29298   0.30118   0.30248   0.31228
 Alpha virt. eigenvalues --    0.31629   0.31862   0.32707   0.33280   0.33585
 Alpha virt. eigenvalues --    0.34011   0.34463   0.35098   0.35595   0.35867
 Alpha virt. eigenvalues --    0.36777   0.37538   0.38709   0.40201   0.40892
 Alpha virt. eigenvalues --    0.41892   0.43383   0.44634   0.45435   0.46913
 Alpha virt. eigenvalues --    0.47213   0.48732   0.50139   0.51162   0.52320
 Alpha virt. eigenvalues --    0.52793   0.53483   0.54258   0.54917   0.57476
 Alpha virt. eigenvalues --    0.57903   0.58708   0.59479   0.61283   0.61958
 Alpha virt. eigenvalues --    0.63828   0.64490   0.64667   0.65147   0.65823
 Alpha virt. eigenvalues --    0.66445   0.67671   0.68055   0.68755   0.69471
 Alpha virt. eigenvalues --    0.69885   0.70369   0.71155   0.71929   0.72361
 Alpha virt. eigenvalues --    0.72996   0.74436   0.74717   0.76017   0.76502
 Alpha virt. eigenvalues --    0.77754   0.78246   0.78524   0.80717   0.81266
 Alpha virt. eigenvalues --    0.83891   0.84624   0.87381   0.88341   0.92142
 Alpha virt. eigenvalues --    0.95668   0.96635   0.98662   0.99696   1.01700
 Alpha virt. eigenvalues --    1.02959   1.04047   1.04964   1.07969   1.09915
 Alpha virt. eigenvalues --    1.11302   1.12515   1.15021   1.15768   1.17656
 Alpha virt. eigenvalues --    1.18379   1.19070   1.20577   1.23987   1.25413
 Alpha virt. eigenvalues --    1.27235   1.31448   1.32294   1.32839   1.38506
 Alpha virt. eigenvalues --    1.41201   1.44561   1.45469   1.46210   1.46336
 Alpha virt. eigenvalues --    1.47227   1.48821   1.49120   1.50356   1.53298
 Alpha virt. eigenvalues --    1.53993   1.56087   1.56781   1.57297   1.57859
 Alpha virt. eigenvalues --    1.59180   1.59915   1.60444   1.60805   1.61826
 Alpha virt. eigenvalues --    1.62517   1.64374   1.64717   1.65148   1.66748
 Alpha virt. eigenvalues --    1.66952   1.68754   1.69366   1.70682   1.71191
 Alpha virt. eigenvalues --    1.72312   1.73599   1.74306   1.75512   1.77554
 Alpha virt. eigenvalues --    1.78371   1.78814   1.79245   1.80344   1.82502
 Alpha virt. eigenvalues --    1.82780   1.85421   1.86367   1.88621   1.90540
 Alpha virt. eigenvalues --    1.93762   1.97116   1.98490   2.01135   2.04254
 Alpha virt. eigenvalues --    2.05300   2.05873   2.06740   2.09177   2.10883
 Alpha virt. eigenvalues --    2.13645   2.14807   2.15881   2.17448   2.19814
 Alpha virt. eigenvalues --    2.20777   2.24288   2.25621   2.26743   2.29406
 Alpha virt. eigenvalues --    2.32224   2.33152   2.35462   2.37450   2.40698
 Alpha virt. eigenvalues --    2.41780   2.41985   2.46380   2.47046   2.48057
 Alpha virt. eigenvalues --    2.50234   2.50463   2.50831   2.51286   2.53122
 Alpha virt. eigenvalues --    2.54255   2.55009   2.55280   2.56570   2.58478
 Alpha virt. eigenvalues --    2.58715   2.60274   2.61280   2.61756   2.63645
 Alpha virt. eigenvalues --    2.65249   2.66731   2.66779   2.70137   2.70295
 Alpha virt. eigenvalues --    2.71787   2.74460   2.75312   2.76131   2.77031
 Alpha virt. eigenvalues --    2.78024   2.79224   2.81815   2.81929   2.84370
 Alpha virt. eigenvalues --    2.86187   2.86301   2.87540   2.91796   2.92506
 Alpha virt. eigenvalues --    2.94737   2.96407   2.96850   2.98057   2.99725
 Alpha virt. eigenvalues --    3.02304   3.05896   3.07418   3.09635   3.13946
 Alpha virt. eigenvalues --    3.16587   3.19337   3.26078   3.28206   3.39093
 Alpha virt. eigenvalues --    3.45183   3.49289   3.52017   3.64828   3.72862
 Alpha virt. eigenvalues --    3.77143   3.78643   3.79079   3.79627   3.80290
 Alpha virt. eigenvalues --    3.82515   3.84542   3.85029   3.88393   3.93226
 Alpha virt. eigenvalues --    3.99303   4.02114   4.12630   4.22095   4.25990
 Alpha virt. eigenvalues --    4.30150   4.33085   4.39974   4.86987   5.01570
 Alpha virt. eigenvalues --    5.05957   5.08156   5.48032   5.57678  23.75427
 Alpha virt. eigenvalues --   23.82764  23.83660  23.89983  23.91889  23.93521
 Alpha virt. eigenvalues --   23.96996  23.97973  23.98898  49.83071  49.88999
  Beta  occ. eigenvalues --  -19.19418 -19.18451 -10.25428 -10.20145 -10.17718
  Beta  occ. eigenvalues --  -10.17501 -10.17450 -10.16990 -10.16547 -10.15736
  Beta  occ. eigenvalues --  -10.15661  -1.12075  -0.87276  -0.82807  -0.80778
  Beta  occ. eigenvalues --   -0.75597  -0.68819  -0.68466  -0.67804  -0.61257
  Beta  occ. eigenvalues --   -0.57993  -0.56077  -0.51517  -0.48991  -0.47678
  Beta  occ. eigenvalues --   -0.46290  -0.44822  -0.44075  -0.43247  -0.42331
  Beta  occ. eigenvalues --   -0.40806  -0.39848  -0.38624  -0.38070  -0.38049
  Beta  occ. eigenvalues --   -0.36966  -0.35970  -0.34987  -0.34312  -0.33882
  Beta  occ. eigenvalues --   -0.32440  -0.32255  -0.31379  -0.25977
  Beta virt. eigenvalues --   -0.13119  -0.02043  -0.01369  -0.00370   0.00254
  Beta virt. eigenvalues --    0.00811   0.01656   0.01901   0.02563   0.03476
  Beta virt. eigenvalues --    0.03644   0.04040   0.04506   0.05113   0.05452
  Beta virt. eigenvalues --    0.05957   0.06518   0.06781   0.07622   0.08216
  Beta virt. eigenvalues --    0.08630   0.08779   0.09007   0.10454   0.10594
  Beta virt. eigenvalues --    0.10931   0.11326   0.11493   0.11544   0.11826
  Beta virt. eigenvalues --    0.12188   0.12477   0.12979   0.13195   0.13818
  Beta virt. eigenvalues --    0.14009   0.14126   0.14395   0.14805   0.15009
  Beta virt. eigenvalues --    0.15317   0.15441   0.15981   0.16883   0.17150
  Beta virt. eigenvalues --    0.17253   0.17487   0.17788   0.18071   0.18476
  Beta virt. eigenvalues --    0.18989   0.19574   0.19674   0.20341   0.20606
  Beta virt. eigenvalues --    0.21260   0.21368   0.21632   0.21977   0.22188
  Beta virt. eigenvalues --    0.22885   0.23140   0.24249   0.24391   0.24763
  Beta virt. eigenvalues --    0.24994   0.25727   0.25942   0.26616   0.27476
  Beta virt. eigenvalues --    0.28070   0.28508   0.29517   0.30276   0.30405
  Beta virt. eigenvalues --    0.31288   0.31756   0.31966   0.32794   0.33355
  Beta virt. eigenvalues --    0.33695   0.34081   0.34478   0.35177   0.35682
  Beta virt. eigenvalues --    0.35922   0.36820   0.37587   0.38805   0.40284
  Beta virt. eigenvalues --    0.41079   0.42006   0.43492   0.44686   0.45606
  Beta virt. eigenvalues --    0.46981   0.47275   0.48839   0.50243   0.51221
  Beta virt. eigenvalues --    0.52339   0.52901   0.53551   0.54298   0.54985
  Beta virt. eigenvalues --    0.57568   0.58156   0.58780   0.59740   0.61513
  Beta virt. eigenvalues --    0.62349   0.63963   0.64536   0.64926   0.65523
  Beta virt. eigenvalues --    0.66035   0.66563   0.67907   0.68149   0.68790
  Beta virt. eigenvalues --    0.69654   0.69920   0.70515   0.71211   0.72041
  Beta virt. eigenvalues --    0.72466   0.73113   0.74473   0.74740   0.76052
  Beta virt. eigenvalues --    0.76532   0.77812   0.78298   0.78546   0.80744
  Beta virt. eigenvalues --    0.81280   0.83922   0.84810   0.87515   0.88598
  Beta virt. eigenvalues --    0.92448   0.95810   0.97045   0.98909   1.00077
  Beta virt. eigenvalues --    1.01744   1.03091   1.05028   1.06673   1.08157
  Beta virt. eigenvalues --    1.10184   1.11631   1.12682   1.15358   1.16163
  Beta virt. eigenvalues --    1.17777   1.18538   1.19265   1.20808   1.24095
  Beta virt. eigenvalues --    1.25689   1.27342   1.31552   1.32642   1.33446
  Beta virt. eigenvalues --    1.39531   1.41273   1.44764   1.45916   1.46366
  Beta virt. eigenvalues --    1.46563   1.47233   1.48864   1.49163   1.50696
  Beta virt. eigenvalues --    1.53683   1.54459   1.56214   1.56860   1.57344
  Beta virt. eigenvalues --    1.58127   1.59220   1.60110   1.60533   1.60858
  Beta virt. eigenvalues --    1.61850   1.62681   1.64398   1.64820   1.65365
  Beta virt. eigenvalues --    1.66855   1.67009   1.68981   1.69512   1.70824
  Beta virt. eigenvalues --    1.71825   1.72554   1.73662   1.74536   1.75664
  Beta virt. eigenvalues --    1.77651   1.78729   1.78992   1.79515   1.80378
  Beta virt. eigenvalues --    1.82675   1.82962   1.85698   1.86489   1.88845
  Beta virt. eigenvalues --    1.91072   1.93885   1.97234   1.98552   2.01224
  Beta virt. eigenvalues --    2.04630   2.05676   2.06158   2.06875   2.09276
  Beta virt. eigenvalues --    2.10971   2.13823   2.14856   2.16272   2.17501
  Beta virt. eigenvalues --    2.20202   2.21233   2.24424   2.25714   2.26860
  Beta virt. eigenvalues --    2.29554   2.32298   2.33226   2.35755   2.37484
  Beta virt. eigenvalues --    2.40727   2.41820   2.42093   2.46502   2.47091
  Beta virt. eigenvalues --    2.48180   2.50245   2.50637   2.51073   2.51394
  Beta virt. eigenvalues --    2.53148   2.54384   2.55113   2.55529   2.56762
  Beta virt. eigenvalues --    2.58549   2.58920   2.60385   2.61376   2.62022
  Beta virt. eigenvalues --    2.63757   2.65318   2.66878   2.67091   2.70337
  Beta virt. eigenvalues --    2.70382   2.71953   2.74584   2.75544   2.76187
  Beta virt. eigenvalues --    2.77158   2.78205   2.79344   2.82040   2.82348
  Beta virt. eigenvalues --    2.85446   2.86958   2.88717   2.89272   2.91954
  Beta virt. eigenvalues --    2.92698   2.94902   2.96564   2.96963   2.98268
  Beta virt. eigenvalues --    2.99817   3.02331   3.06001   3.08034   3.10208
  Beta virt. eigenvalues --    3.14404   3.16705   3.19454   3.26227   3.28599
  Beta virt. eigenvalues --    3.39434   3.46844   3.49937   3.52187   3.67716
  Beta virt. eigenvalues --    3.74063   3.77214   3.78647   3.79140   3.79749
  Beta virt. eigenvalues --    3.80323   3.82536   3.84576   3.85055   3.88410
  Beta virt. eigenvalues --    3.93621   3.99314   4.02336   4.12660   4.22165
  Beta virt. eigenvalues --    4.26377   4.30152   4.33262   4.40029   4.87705
  Beta virt. eigenvalues --    5.03096   5.06075   5.13241   5.48850   5.58334
  Beta virt. eigenvalues --   23.76288  23.82777  23.83663  23.90003  23.91892
  Beta virt. eigenvalues --   23.93575  23.97082  23.97974  23.98901  49.84698
  Beta virt. eigenvalues --   49.88974
          Condensed to atoms (all electrons):
              1          2          3          4          5          6
     1  C    6.228260   0.377151   0.445776   0.338507  -0.826810  -0.104276
     2  H    0.377151   0.580356  -0.041839  -0.025699  -0.027493  -0.011694
     3  H    0.445776  -0.041839   0.517847  -0.033319   0.031811   0.012454
     4  H    0.338507  -0.025699  -0.033319   0.567614   0.044019  -0.003507
     5  C   -0.826810  -0.027493   0.031811   0.044019  11.353638   0.712841
     6  H   -0.104276  -0.011694   0.012454  -0.003507   0.712841   0.618755
     7  C    0.407110  -0.019939  -0.076593   0.013434  -3.190516  -0.195267
     8  H   -0.006563  -0.008770  -0.000595   0.004273  -0.342961  -0.020699
     9  H   -0.027682   0.008935   0.007019  -0.001486   0.359683   0.034626
    10  C   -0.117245   0.014041  -0.004321   0.000474   0.428089  -0.005760
    11  H    0.017834  -0.000275   0.001925  -0.000582  -0.005568   0.010891
    12  H    0.048874  -0.001366   0.001755  -0.001686  -0.062415  -0.019418
    13  C   -0.215583   0.000992  -0.009921   0.002855  -0.427734   0.010544
    14  H    0.003412  -0.000789   0.000246   0.000052  -0.007915  -0.001843
    15  H   -0.003848   0.002039  -0.000210  -0.000281   0.012944   0.001760
    16  C    0.016683   0.001320   0.000314  -0.001238  -0.210668  -0.017469
    17  H    0.000713   0.000041   0.000016  -0.000040  -0.001629  -0.000859
    18  C   -0.003856  -0.000027  -0.000140   0.000036  -0.007155  -0.000230
    19  H    0.000038   0.000000  -0.000011   0.000000  -0.001836  -0.000070
    20  H   -0.000095   0.000022  -0.000003  -0.000003   0.000287  -0.000010
    21  H    0.000001  -0.000058   0.000000   0.000015   0.001232   0.000013
    22  C    0.015019   0.019086  -0.034254  -0.052187  -2.515487  -0.207732
    23  H    0.014476   0.001712   0.003677  -0.005822  -0.317882  -0.015087
    24  H   -0.001962  -0.000106  -0.000308  -0.000585   0.019304   0.007554
    25  C   -0.000784  -0.000140   0.000122  -0.000089   0.001770   0.003101
    26  H    0.000170  -0.000025   0.000000  -0.000007  -0.003261  -0.000156
    27  H    0.000505   0.000062   0.000032  -0.000012   0.007202  -0.000161
    28  H   -0.002902   0.000015  -0.000175   0.000153  -0.005947   0.001336
    29  O   -0.048203  -0.001104   0.006591  -0.005866  -0.068938   0.018520
    30  O    0.001831   0.001056  -0.000165   0.000010  -0.056216   0.001772
              7          8          9         10         11         12
     1  C    0.407110  -0.006563  -0.027682  -0.117245   0.017834   0.048874
     2  H   -0.019939  -0.008770   0.008935   0.014041  -0.000275  -0.001366
     3  H   -0.076593  -0.000595   0.007019  -0.004321   0.001925   0.001755
     4  H    0.013434   0.004273  -0.001486   0.000474  -0.000582  -0.001686
     5  C   -3.190516  -0.342961   0.359683   0.428089  -0.005568  -0.062415
     6  H   -0.195267  -0.020699   0.034626  -0.005760   0.010891  -0.019418
     7  C   10.344926   0.602041   0.241193  -1.943043  -0.102511  -0.009232
     8  H    0.602041   0.664870  -0.095995  -0.097354  -0.032485   0.033168
     9  H    0.241193  -0.095995   0.590320  -0.076025   0.019040  -0.060724
    10  C   -1.943043  -0.097354  -0.076025   8.067894   0.586962   0.470462
    11  H   -0.102511  -0.032485   0.019040   0.586962   0.686577  -0.123096
    12  H   -0.009232   0.033168  -0.060724   0.470462  -0.123096   0.935344
    13  C    0.764409   0.057258   0.000734  -2.074643  -0.200768  -0.400748
    14  H   -0.024619   0.003578  -0.001617  -0.064210   0.020154   0.005835
    15  H   -0.019915  -0.006916   0.004714  -0.066000  -0.027211   0.002023
    16  C   -0.343325  -0.002426  -0.038376   0.602814   0.048073   0.192263
    17  H   -0.010627  -0.000546  -0.000009  -0.006208   0.014184   0.020956
    18  C   -0.054739   0.002254  -0.004163  -0.237627  -0.010281   0.006297
    19  H    0.001875  -0.000065   0.000116   0.001852   0.001188   0.003379
    20  H   -0.003839  -0.000388   0.000293   0.004927  -0.000305  -0.000682
    21  H   -0.000516   0.001339  -0.000643  -0.006587  -0.000170  -0.000606
    22  C    0.506651   0.105756  -0.197680   0.360683  -0.011938   0.023562
    23  H    0.083220   0.003453  -0.003890  -0.018502   0.000632  -0.007076
    24  H   -0.246796  -0.011339   0.021630   0.122280   0.005214  -0.030400
    25  C    0.060449  -0.001137   0.003489   0.127711  -0.029170  -0.055710
    26  H    0.006338   0.000670  -0.000439   0.003960  -0.001126   0.000532
    27  H   -0.020203  -0.001336   0.001212   0.026528   0.004543   0.007897
    28  H    0.009043   0.000865   0.000764   0.002047  -0.004710  -0.024927
    29  O   -0.057952  -0.001963   0.026944   0.002508   0.001241  -0.016686
    30  O    0.120878   0.003680  -0.021855   0.015417   0.000299   0.035411
             13         14         15         16         17         18
     1  C   -0.215583   0.003412  -0.003848   0.016683   0.000713  -0.003856
     2  H    0.000992  -0.000789   0.002039   0.001320   0.000041  -0.000027
     3  H   -0.009921   0.000246  -0.000210   0.000314   0.000016  -0.000140
     4  H    0.002855   0.000052  -0.000281  -0.001238  -0.000040   0.000036
     5  C   -0.427734  -0.007915   0.012944  -0.210668  -0.001629  -0.007155
     6  H    0.010544  -0.001843   0.001760  -0.017469  -0.000859  -0.000230
     7  C    0.764409  -0.024619  -0.019915  -0.343325  -0.010627  -0.054739
     8  H    0.057258   0.003578  -0.006916  -0.002426  -0.000546   0.002254
     9  H    0.000734  -0.001617   0.004714  -0.038376  -0.000009  -0.004163
    10  C   -2.074643  -0.064210  -0.066000   0.602814  -0.006208  -0.237627
    11  H   -0.200768   0.020154  -0.027211   0.048073   0.014184  -0.010281
    12  H   -0.400748   0.005835   0.002023   0.192263   0.020956   0.006297
    13  C    9.849036   0.391146   0.434561  -1.964622  -0.168395   0.434359
    14  H    0.391146   0.599462  -0.076708   0.070726   0.022120   0.006525
    15  H    0.434561  -0.076708   0.672761  -0.084723  -0.018014   0.011264
    16  C   -1.964622   0.070726  -0.084723   7.142402   0.607673  -0.171095
    17  H   -0.168395   0.022120  -0.018014   0.607673   0.624936  -0.051456
    18  C    0.434359   0.006525   0.011264  -0.171095  -0.051456   5.698582
    19  H   -0.088178   0.003999   0.001314   0.094742   0.016411   0.381646
    20  H    0.044465  -0.003432   0.001951  -0.088843  -0.012801   0.394285
    21  H   -0.007858   0.004267  -0.000606  -0.053557  -0.013313   0.409361
    22  C    0.136211  -0.006894   0.003776   0.049089  -0.001066   0.003811
    23  H   -0.004889  -0.001609   0.000680  -0.000617  -0.000198  -0.000363
    24  H   -0.010340  -0.001964   0.002744  -0.012264  -0.000621  -0.000984
    25  C    0.189613  -0.083999   0.037855  -0.240661  -0.145866  -0.176175
    26  H    0.043000  -0.004693  -0.002783  -0.101390  -0.005959  -0.006236
    27  H   -0.119469   0.013866  -0.002933   0.102543   0.014716  -0.012415
    28  H    0.030970  -0.001402   0.004126  -0.078222  -0.018178   0.011144
    29  O    0.006288  -0.003549   0.001118  -0.003454  -0.000151  -0.000257
    30  O   -0.043714   0.001142  -0.000605   0.012522   0.000244  -0.000115
             19         20         21         22         23         24
     1  C    0.000038  -0.000095   0.000001   0.015019   0.014476  -0.001962
     2  H    0.000000   0.000022  -0.000058   0.019086   0.001712  -0.000106
     3  H   -0.000011  -0.000003   0.000000  -0.034254   0.003677  -0.000308
     4  H    0.000000  -0.000003   0.000015  -0.052187  -0.005822  -0.000585
     5  C   -0.001836   0.000287   0.001232  -2.515487  -0.317882   0.019304
     6  H   -0.000070  -0.000010   0.000013  -0.207732  -0.015087   0.007554
     7  C    0.001875  -0.003839  -0.000516   0.506651   0.083220  -0.246796
     8  H   -0.000065  -0.000388   0.001339   0.105756   0.003453  -0.011339
     9  H    0.000116   0.000293  -0.000643  -0.197680  -0.003890   0.021630
    10  C    0.001852   0.004927  -0.006587   0.360683  -0.018502   0.122280
    11  H    0.001188  -0.000305  -0.000170  -0.011938   0.000632   0.005214
    12  H    0.003379  -0.000682  -0.000606   0.023562  -0.007076  -0.030400
    13  C   -0.088178   0.044465  -0.007858   0.136211  -0.004889  -0.010340
    14  H    0.003999  -0.003432   0.004267  -0.006894  -0.001609  -0.001964
    15  H    0.001314   0.001951  -0.000606   0.003776   0.000680   0.002744
    16  C    0.094742  -0.088843  -0.053557   0.049089  -0.000617  -0.012264
    17  H    0.016411  -0.012801  -0.013313  -0.001066  -0.000198  -0.000621
    18  C    0.381646   0.394285   0.409361   0.003811  -0.000363  -0.000984
    19  H    0.559903  -0.033113  -0.047152   0.000074   0.000015  -0.000212
    20  H   -0.033113   0.563060  -0.019222   0.000072  -0.000004   0.000103
    21  H   -0.047152  -0.019222   0.584799  -0.000238  -0.000016  -0.000048
    22  C    0.000074   0.000072  -0.000238   7.707388   0.459563   0.306849
    23  H    0.000015  -0.000004  -0.000016   0.459563   0.621287  -0.010342
    24  H   -0.000212   0.000103  -0.000048   0.306849  -0.010342   0.570223
    25  C   -0.042308  -0.001882   0.023591   0.015815   0.002299   0.009588
    26  H    0.003171  -0.000478   0.001388   0.000719   0.000068  -0.000201
    27  H    0.011054   0.001508  -0.002564  -0.001565   0.000065   0.000529
    28  H   -0.005932   0.002330  -0.001952   0.000047  -0.000414  -0.001995
    29  O   -0.000004   0.000006  -0.000016   0.355408  -0.035824  -0.025403
    30  O    0.000027  -0.000013  -0.000008  -0.194650   0.001494   0.057547
             25         26         27         28         29         30
     1  C   -0.000784   0.000170   0.000505  -0.002902  -0.048203   0.001831
     2  H   -0.000140  -0.000025   0.000062   0.000015  -0.001104   0.001056
     3  H    0.000122   0.000000   0.000032  -0.000175   0.006591  -0.000165
     4  H   -0.000089  -0.000007  -0.000012   0.000153  -0.005866   0.000010
     5  C    0.001770  -0.003261   0.007202  -0.005947  -0.068938  -0.056216
     6  H    0.003101  -0.000156  -0.000161   0.001336   0.018520   0.001772
     7  C    0.060449   0.006338  -0.020203   0.009043  -0.057952   0.120878
     8  H   -0.001137   0.000670  -0.001336   0.000865  -0.001963   0.003680
     9  H    0.003489  -0.000439   0.001212   0.000764   0.026944  -0.021855
    10  C    0.127711   0.003960   0.026528   0.002047   0.002508   0.015417
    11  H   -0.029170  -0.001126   0.004543  -0.004710   0.001241   0.000299
    12  H   -0.055710   0.000532   0.007897  -0.024927  -0.016686   0.035411
    13  C    0.189613   0.043000  -0.119469   0.030970   0.006288  -0.043714
    14  H   -0.083999  -0.004693   0.013866  -0.001402  -0.003549   0.001142
    15  H    0.037855  -0.002783  -0.002933   0.004126   0.001118  -0.000605
    16  C   -0.240661  -0.101390   0.102543  -0.078222  -0.003454   0.012522
    17  H   -0.145866  -0.005959   0.014716  -0.018178  -0.000151   0.000244
    18  C   -0.176175  -0.006236  -0.012415   0.011144  -0.000257  -0.000115
    19  H   -0.042308   0.003171   0.011054  -0.005932  -0.000004   0.000027
    20  H   -0.001882  -0.000478   0.001508   0.002330   0.000006  -0.000013
    21  H    0.023591   0.001388  -0.002564  -0.001952  -0.000016  -0.000008
    22  C    0.015815   0.000719  -0.001565   0.000047   0.355408  -0.194650
    23  H    0.002299   0.000068   0.000065  -0.000414  -0.035824   0.001494
    24  H    0.009588  -0.000201   0.000529  -0.001995  -0.025403   0.057547
    25  C    5.770003   0.417759   0.341220   0.418956   0.001433  -0.000750
    26  H    0.417759   0.571565  -0.033103  -0.029061  -0.000054   0.000093
[...]
 00544,-0.00001152,-0.00000808,0.00000182,-0.00000005,0.00000911,-0.000
 00635,-0.00000656,0.05830456,0.04769953,0.02263460,-0.00353531,-0.0050
 3990,-0.00282730,-0.00115643,-0.04830398,-0.00176596,-0.00107397,-0.00
 082688,0.00027101,-0.00025406,0.00027553,0.00011839,0.00023693,0.00021
 863,0.00011614,-0.00001152,-0.00006462,0.00120788,0.00320229,0.0008726
 2,0.00006770,-0.00011336,0.00000881,-0.00012790,-0.00121991,-0.0006634
 7,0.00015726,0.00015782,-0.00012840,-0.00005071,-0.00003373,-0.0000408
 5,-0.00008421,-0.00082950,-0.00004385,-0.00011432,0.00039059,-0.000034
 22,0.00033242,0.00052437,0.00046845,0.00006639,0.00027920,-0.00011701,
 0.00000270,-0.00004160,0.00000945,-0.00015024,0.00003615,0.00008111,0.
 00008845,0.00002900,0.00010441,-0.00000073,-0.00000269,-0.00000874,-0.
 00003133,-0.00002673,-0.00004646,0.00000586,-0.00000161,0.00001343,-0.
 00004464,-0.00000432,-0.00000050,0.00001017,0.00000061,0.00000208,-0.0
 6142903,-0.07300843,-0.03568728,0.01106932,0.00920361,0.00547924,0.065
 15596,0.08795454,0.03180685,-0.00003734,0.00002598,0.00001936,0.000019
 89,0.00001995,-0.00000282,0.00001201,-0.00000439,-0.00000083,-0.000028
 41,-0.00000833,0.00000269,0.00000247,0.00013339,-0.00005041,-0.0000236
 5,-0.00001285,0.00003135,-0.00002247,-0.00020328,0.00012360,-0.0000112
 6,0.00026066,0.00004599,0.00008088,-0.00000443,0.00001992,0.00055460,-
 0.00076812,-0.00052215,-0.00005131,-0.00021801,0.00024585,-0.00084902,
 -0.00051568,-0.00032735,-0.00066415,-0.03033850,-0.00487289,0.00107078
 ,0.00032191,0.00080441,-0.00506984,-0.00249678,-0.00250243,-0.07777432
 ,-0.00170058,-0.00046853,-0.00012677,0.00179387,0.00020951,-0.00182102
 ,0.02923658,0.00490375,0.00092147,-0.00043029,-0.00071547,0.00064889,0
 .00092717,0.00006775,-0.00444164,0.00256716,0.00325877,-0.00004574,-0.
 00016359,0.00004262,-0.00003734,0.00004337,0.00000025,-0.00003849,-0.0
 0008000,-0.00003140,0.56853076,0.00006522,-0.00002456,-0.00002849,-0.0
 0000841,-0.00000616,-0.00000359,-0.00000300,0.00000057,-0.00000007,0.0
 0001928,0.00001418,0.00000490,0.00007124,0.00008254,0.00010462,0.00000
 099,0.00000444,-0.00000526,0.00052438,-0.00034440,-0.00036910,-0.00014
 081,-0.00005110,-0.00005473,-0.00001250,0.00001024,-0.00001073,-0.0003
 0368,0.00093462,0.00035205,-0.00003748,-0.00003949,0.00007572,-0.00010
 069,-0.00062521,-0.00005827,-0.00627203,-0.01427654,-0.00438080,0.0013
 0189,0.00124186,0.00079574,-0.00062420,0.00108326,0.00033188,0.0005630
 5,-0.17523635,-0.01128799,0.00006238,-0.01885346,-0.00233927,0.0056362
 5,-0.01638621,-0.00550426,-0.00129084,0.00125047,0.00093914,-0.0012445
 0,0.00073806,0.00069160,0.00040685,0.00079319,-0.00037865,0.00002471,0
 .00009118,-0.00001879,-0.00000093,-0.00001751,0.00000003,0.00003719,-0
 .00000832,-0.00001378,-0.00566445,0.45660392,-0.00000502,0.00000755,0.
 00001312,0.00000617,0.00000286,-0.00000732,-0.00000005,-0.00000427,-0.
 00000639,-0.00001986,-0.00000015,0.00000315,0.00005373,0.00011085,-0.0
 0003001,0.00000892,0.00001405,-0.00000287,0.00034449,-0.00053592,0.000
 07361,-0.00014647,-0.00002893,-0.00012223,-0.00002561,0.00001160,-0.00
 004583,-0.00054301,0.00080493,-0.00000774,-0.00013003,-0.00010496,0.00
 013010,0.00035878,-0.00073841,0.00029557,-0.00217599,-0.01645077,-0.00
 337183,0.00040149,-0.00113398,0.00047565,-0.00260401,-0.00156633,-0.00
 090203,0.00084086,-0.00867904,-0.07964107,0.00020457,0.02977907,0.0044
 3752,0.00240508,-0.02126420,-0.00391381,-0.00042431,-0.00099171,0.0005
 3079,-0.00110109,0.00066348,0.00051111,0.00275077,-0.00203949,-0.00184
 038,-0.00004583,-0.00010437,0.00000696,-0.00000322,0.00002894,0.000005
 91,0.00014165,0.00010794,-0.00005905,-0.00260094,-0.00828747,0.5592687
 3,-0.00001626,0.00001449,0.00002727,0.00000721,-0.00000098,-0.00000584
 ,0.00000518,-0.00000054,-0.00000460,-0.00003243,-0.00000588,0.00000374
 ,0.00002913,0.00000830,-0.00006310,0.00000612,0.00000354,0.00000857,0.
 00013446,-0.00019497,0.00004440,-0.00011281,-0.00004586,-0.00004765,-0
 .00000861,0.00001038,-0.00000635,-0.00006891,0.00032885,-0.00021135,-0
 .00000037,-0.00009474,0.00005333,0.00035271,-0.00029631,-0.00005128,0.
 00090669,0.00001775,0.00087799,0.00005550,0.00015041,0.00006474,-0.000
 01874,-0.00007607,-0.00008870,-0.00081194,0.00045493,0.00048020,0.0001
 1489,-0.00052252,0.00030533,0.00071863,0.00086559,0.00047347,-0.000041
 42,-0.00002481,0.00002243,0.00054828,0.00000958,-0.00015854,0.00024699
 ,-0.00009638,0.00012146,0.00002292,-0.00004031,-0.00002768,-0.00002614
 ,0.00001301,0.00000505,0.00008943,0.00000620,-0.00005662,-0.23722818,-
 0.06027176,-0.09694135,0.25742050,-0.00003641,0.00002094,0.00001581,0.
 00001098,0.00000838,-0.00000055,0.00000376,-0.00000380,-0.00000277,-0.
 00002106,-0.00000867,0.00000012,-0.00001166,0.00003058,-0.00004834,-0.
 00000197,0.00000249,0.00000783,-0.00016567,0.00009351,0.00013145,0.000
 05902,0.00009910,0.00003208,0.00001862,-0.00001501,-0.00000581,0.00067
 481,-0.00023213,-0.00032599,-0.00004691,0.00001060,0.00005678,-0.00016
 882,0.00025610,0.00010961,0.00191608,-0.00661757,-0.00007647,0.0001731
 6,0.00011792,-0.00012431,-0.00180634,-0.00081811,-0.00094584,-0.028890
 50,-0.00916794,-0.01559661,0.00001772,0.00120084,0.00067335,-0.0015207
 6,0.00143638,0.00018171,0.00017863,-0.00004818,-0.00000409,0.00095069,
 -0.00008107,-0.00005554,0.00004890,0.00027853,0.00044623,-0.00003866,-
 0.00013310,0.00002366,-0.00000969,0.00003094,0.00000279,-0.00000557,-0
 .00000158,-0.00001033,-0.05895180,-0.06455864,-0.02963056,0.06576525,0
 .07214496,-0.00000478,0.00000443,0.00000504,0.00000272,-0.00000063,-0.
 00000048,0.00000182,0.00000028,-0.00000117,-0.00000715,-0.00000209,0.0
 0000107,-0.00002090,-0.00000497,-0.00001832,-0.00000207,-0.00000274,0.
 00000359,-0.00013027,0.00016017,0.00004242,0.00007763,0.00003426,0.000
 03758,0.00002237,0.00000551,0.00001716,0.00034693,-0.00015933,0.000054
 65,-0.00005295,-0.00002130,0.00000932,-0.00017606,0.00024768,-0.000066
 53,0.00058698,-0.00135114,0.00040532,0.00033980,0.00014642,0.00046603,
 -0.00046586,-0.00036319,0.00018787,-0.00301456,-0.00038799,-0.00296272
 ,0.00042385,-0.00020941,0.00041929,-0.00073624,0.00020345,-0.00010120,
 -0.00009395,-0.00006062,-0.00007682,0.00051981,-0.00030877,0.00016736,
 0.00026282,0.00019724,0.00006888,0.00000496,-0.00000721,-0.00000232,-0
 .00000502,0.00000253,0.00000175,-0.00001210,-0.00001964,-0.00000202,-0
 .09633956,-0.03019661,-0.09592983,0.10648104,0.03431263,0.10024447,-0.
 00001694,0.00000443,-0.00000991,0.00000215,0.00000718,0.00000362,-0.00
 000255,-0.00000328,-0.00000017,0.00000561,-0.00000100,-0.00000104,0.00
 001918,0.00000685,0.00001625,0.00000303,0.00000780,-0.00001035,0.00001
 239,-0.00000177,-0.00002239,0.00000716,-0.00000075,-0.00000115,-0.0000
 3022,-0.00001920,-0.00003227,-0.00017111,-0.00001042,-0.00003906,0.000
 06545,0.00016177,-0.00006975,-0.00008515,-0.00004299,0.00014962,0.0004
 1099,-0.00052643,0.00117019,0.00017056,-0.00005903,-0.00020133,-0.0000
 2388,0.00012141,-0.00008439,-0.00106478,-0.00062997,0.00063116,0.00066
 905,-0.00025759,0.00006122,0.00004841,0.00030783,-0.00086433,0.0002011
 6,0.00020574,0.00020532,-0.00001119,0.00006592,-0.00012212,-0.00007432
 ,-0.00016938,0.00016457,-0.00003866,-0.00008086,0.00002513,0.00001220,
 0.00001348,-0.00000239,-0.00001666,0.00002650,0.00002189,-0.04887015,0
 .00894771,-0.01637321,-0.00143551,0.01394767,-0.02483522,0.04772715,-0
 .00001069,0.00000243,0.00000381,0.00000164,0.00000330,0.00000274,-0.00
 000184,0.00000023,-0.00000118,-0.00000173,-0.00000231,-0.00000116,-0.0
 0000178,-0.00000874,-0.00000962,0.00000688,0.00000047,-0.00000625,-0.0
 0004725,0.00003998,0.00002121,0.00000501,0.00000387,0.00000748,-0.0000
 3751,-0.00001170,-0.00002106,-0.00016377,-0.00004883,-0.00009956,0.000
 19032,0.00004905,-0.00014498,-0.00012349,-0.00004682,0.00007336,0.0010
 1356,0.00148457,0.00152095,-0.00059540,0.00022747,-0.00095613,0.000214
 39,0.00047102,-0.00033165,0.00234594,-0.01793211,0.03031040,-0.0000420
 1,-0.00653971,-0.00150495,-0.00081862,0.00146413,0.00122953,0.00050427
 ,0.00005028,-0.00096151,0.00004084,-0.00003778,-0.00011517,-0.00021246
 ,0.00038096,-0.00034627,-0.00000782,-0.00002960,0.00000735,0.00000184,
 0.00000471,-0.00000070,-0.00000501,0.00000700,0.00000409,0.00877355,-0
 .10266335,0.10463680,0.00021567,0.00389687,-0.00823107,-0.00952985,0.1
 1489413,0.00003835,-0.00002022,-0.00000013,-0.00000896,-0.00001206,-0.
 00000455,0.00000045,0.00000496,0.00000517,0.00001119,0.00000733,-0.000
 00024,-0.00003846,-0.00000488,-0.00000667,-0.00000489,-0.00001354,0.00
 001164,-0.00003851,0.00000975,-0.00002406,0.00001221,0.00000133,0.0000
 0856,0.00002697,0.00002122,0.00003382,0.00013506,0.00012945,0.00007600
 ,-0.00003730,-0.00012852,0.00003451,0.00001051,0.00010603,-0.00016147,
 0.00003535,-0.00032307,0.00090170,0.00041708,0.00036466,0.00022010,0.0
 0015353,0.00005340,0.00021468,0.00044229,-0.00156554,0.00318714,0.0000
 1514,-0.00122346,0.00140181,-0.00005701,-0.00038828,0.00094783,-0.0004
 2250,0.00030761,0.00029172,0.00004423,0.00004039,-0.00009247,-0.000101
 08,0.00008479,0.00023485,0.00006079,0.00017054,-0.00002059,-0.00000969
 ,-0.00002843,-0.00000548,-0.00001398,-0.00003669,0.00000346,-0.0162457
 5,0.10495183,-0.24320487,-0.00041450,0.00571121,-0.01202476,0.01827440
 ,-0.11635412,0.26419747,0.00002101,-0.00000498,-0.00001142,-0.00000426
 ,-0.00000250,0.00000176,-0.00000374,0.00000004,-0.00000130,0.00001212,
 0.00000456,0.00000112,0.00003895,0.00001305,0.00003955,-0.00000054,0.0
 0000479,-0.00000694,0.00013953,-0.00016788,-0.00011159,-0.00006002,-0.
 00005087,-0.00003535,-0.00001260,-0.00000167,-0.00001294,-0.00093140,-
 0.00038201,-0.00019014,0.00002088,0.00009133,0.00003414,-0.00095704,-0
 .00139894,-0.00039644,-0.00003378,0.00040083,-0.00020063,-0.00002387,-
 0.00005560,-0.00006282,0.00011628,0.00009131,0.00012773,0.00096061,-0.
 00052668,-0.00175983,0.00017502,0.00054662,-0.00021883,0.00056436,0.00
 068301,-0.00046615,-0.00002571,-0.00012620,0.00000692,0.00048913,-0.00
 020785,-0.00000231,0.00013162,-0.00003160,0.00031384,-0.00000547,0.000
 02852,0.00000526,0.00001549,-0.00000537,-0.00000015,-0.00002011,0.0000
 0977,0.00002195,-0.19470253,0.05836300,0.11565048,-0.02075229,0.007877
 65,0.01684993,0.00239634,-0.00173449,-0.00221092,0.21242248,0.00002656
 ,-0.00002051,-0.00001020,-0.00000799,-0.00000482,-0.00000151,-0.000000
 95,0.00000295,0.00000616,0.00002298,0.00000620,-0.00000328,-0.00008290
 ,-0.00001378,0.00001524,-0.00001370,-0.00001548,0.00000688,-0.00030693
 ,0.00026562,0.00011003,0.00016738,0.00008986,0.00005880,0.00006926,0.0
 0000747,0.00005560,-0.00010533,-0.00033083,-0.00013847,-0.00010114,-0.
 00017123,0.00009945,-0.00097992,0.00005186,-0.00018655,0.00068907,0.00
 118784,0.00006959,-0.00013150,-0.00007082,-0.00000649,0.00009411,0.000
 06849,0.00019913,0.02567757,-0.00766191,-0.01951870,0.00003375,0.00133
 170,0.00066866,-0.00164709,-0.00679355,-0.00007593,-0.00018300,0.00007
 894,-0.00018648,-0.00007772,0.00009341,0.00030431,0.00168313,-0.000778
 46,-0.00129959,0.00000921,0.00010994,0.00000405,0.00000964,-0.00001985
 ,-0.00000568,-0.00005510,-0.00000125,0.00004265,0.05729449,-0.06971883
 ,-0.04456555,-0.00620633,0.00198235,0.00598952,-0.01251913,0.00433677,
 0.00821244,-0.06338711,0.07605015,-0.00002048,0.00000630,-0.00002395,0
 .00000322,0.00001199,0.00000770,-0.00000210,-0.00000415,0.00000179,0.0
 0001591,-0.00000244,-0.00000245,-0.00001629,-0.00000891,0.00004750,-0.
 00000589,0.00000422,-0.00000888,-0.00028859,0.00042174,-0.00000543,0.0
 0016503,0.00012096,0.00008910,0.00001271,-0.00003809,-0.00000500,0.000
 54853,-0.00077545,0.00022881,-0.00003226,0.00016065,-0.00010292,-0.000
 75327,0.00038141,0.00024004,0.00078378,-0.00006611,-0.00020726,0.00003
 832,-0.00004413,-0.00000783,-0.00013607,0.00003290,0.00004348,0.001729
 03,-0.00003430,-0.00319283,-0.00042222,-0.00026004,0.00060331,-0.00064
 930,-0.00129348,0.00072121,-0.00028724,0.00019913,0.00046465,0.0002601
 2,0.00009627,0.00001313,0.00048268,-0.00013009,0.00022898,-0.00006838,
 -0.00010822,0.00004084,0.00002113,0.00001264,-0.00000222,-0.00010956,-
 0.00002465,0.00005948,0.11487996,-0.04535275,-0.13666471,-0.01093644,0
 .00512688,0.00904492,0.02197629,-0.00871169,-0.01624525,-0.12734408,0.
 05018331,0.14466951,0.00095682,0.00026144,0.00092652,0.00005110,0.0000
 0808,0.00037895,0.00039948,0.00044288,0.00044635,-0.00001967,0.0000768
 1,0.00004234,0.00308216,0.00263864,-0.01354075,0.00058644,0.00313377,-
 0.00011489,0.00009613,-0.00075493,-0.00047283,0.00029719,0.00004807,-0
 .00037305,-0.00012063,0.00046962,-0.00069696,-0.00036587,-0.00018575,-
 0.00012244,-0.00003948,-0.00008683,-0.00002900,0.00026753,-0.00003038,
 0.00001707,0.00013308,0.00015691,-0.00009991,-0.00001910,-0.00002176,0
 .00002750,-0.00007405,0.00007475,0.00004596,0.00000197,-0.00002011,0.0
 0005259,0.00000905,0.00000743,0.00000197,-0.00000377,0.00000491,-0.000
 02772,0.00000182,-0.00000909,0.00001095,-0.00002716,-0.00000465,-0.000
 00080,0.,0.00001744,0.00000780,-0.06795047,0.02074154,-0.02550257,0.01
 140639,-0.01106081,0.01649110,-0.02117628,-0.01778678,-0.02799237,0.00
 003579,-0.00000836,-0.00006701,-0.00005289,0.00001150,0.00000218,0.000
 02543,-0.00000451,-0.00001192,0.00000321,0.00001770,0.00008547,0.14417
 220,0.00000394,0.00163374,0.00058574,0.00011580,0.00043981,0.00030062,
 0.00000890,0.00004443,-0.00012982,-0.00033871,-0.00010682,0.00014193,0
 .01361623,-0.01280112,0.03750477,0.00237720,-0.00747237,-0.00031325,-0
 .00116654,0.00100885,0.00006248,-0.00016090,0.00009999,0.00021214,0.00
 033565,-0.00026650,0.00052553,-0.00020362,-0.00107748,0.00000587,0.000
 00297,0.00018591,0.00000668,0.00013472,0.00038725,0.00008182,0.0001088
 7,0.00035528,0.00015510,0.00001455,-0.00004494,-0.00004399,-0.00009858
 ,0.00005508,0.00005870,-0.00002742,-0.00012107,-0.00009634,-0.00000053
 ,0.00002683,-0.00000542,0.00005025,0.00006534,0.00004449,-0.00000452,-
 0.00000650,-0.00001638,0.00004886,-0.00000508,-0.00000214,-0.00002295,
 0.00002038,0.00000860,-0.00556300,-0.09444769,0.03807817,-0.00156886,0
 .00374939,0.00723706,-0.00019291,0.02036567,-0.01991096,0.00008259,-0.
 00002414,-0.00001808,0.00000648,0.00004176,0.00000978,0.00001951,0.000
 00362,-0.00004789,-0.00001912,-0.00003289,0.00005654,0.06260019,0.1760
 1717,0.00018129,0.00019719,0.00088170,0.00009419,-0.00014110,0.0001239
 5,0.00045894,0.00024980,0.00044662,0.00002733,-0.00009932,-0.00013184,
 -0.00489951,0.00896582,-0.01000357,0.00033934,0.00160387,0.00139485,0.
 00196162,-0.00054168,-0.00058026,0.00005789,-0.00027744,0.00083714,-0.
 00060800,-0.00017283,0.00164467,-0.00041776,-0.00005242,0.00024136,0.0
 0024454,-0.00013032,0.00021484,0.00004914,0.00000395,-0.00021379,0.000
 01506,0.00007362,-0.00011277,-0.00007344,-0.00002431,0.00008846,-0.000
 01177,0.00001271,0.00002167,-0.00004211,0.00000105,0.00001827,0.000025
 70,-0.00001536,0.00002957,-0.00000373,0.00001184,-0.00001254,-0.000007
 63,-0.00000767,0.00001442,0.00000360,0.00000034,0.00000465,-0.00000490
 ,0.00000028,-0.00000217,-0.01131598,0.07215015,-0.19238143,-0.01263148
 ,0.00747426,-0.03970943,-0.04115954,-0.04322984,-0.01988558,0.00005995
 ,0.00001127,-0.00006266,0.00000943,-0.00000530,0.00001594,-0.00003627,
 -0.00001151,0.00004132,-0.00001315,0.00001410,-0.00000759,0.10084424,-
 0.03653242,0.32097534,0.00102423,-0.00017845,-0.00005942,-0.00020737,-
 0.00029747,-0.00042406,-0.00025615,-0.00036281,-0.00013886,0.00020131,
 0.00013548,0.00000612,-0.00559378,-0.00216275,-0.00269258,-0.00007069,
 0.00093785,-0.00025672,-0.00021879,0.00013728,0.00104365,0.00013005,0.
 00011246,-0.00015015,-0.00004844,-0.00011330,-0.00043927,-0.00004438,-
 0.00075900,-0.00086108,-0.00014859,0.00042488,-0.00005907,-0.00027949,
 0.00094190,0.00053069,0.00017177,0.00010371,0.00014785,0.00009644,-0.0
 0004446,-0.00012552,-0.00008129,0.00007275,0.00001518,0.00007323,-0.00
 000122,-0.00003736,-0.00002660,0.00001813,-0.00003060,0.00000397,-0.00
 000436,0.00000408,0.00001127,0.00000065,-0.00000626,-0.00001962,-0.000
 00856,-0.00000928,0.00000154,0.00001531,0.00000479,0.02501639,-0.00280
 961,0.03191878,-0.00025379,-0.00110529,-0.00261019,-0.02396123,-0.0291
 9460,0.01316599,-0.00003390,-0.00004050,0.00004003,-0.00005216,0.00002
 138,-0.00002616,0.00006489,0.00002436,-0.00006209,0.00002633,0.0000109
 9,0.00006998,-0.07167640,-0.07015903,-0.03314701,0.07615126,0.00149677
 ,-0.00044460,0.00010044,-0.00029182,-0.00070782,-0.00040335,-0.0000015
 9,-0.00001041,-0.00007763,0.00016117,-0.00001815,0.00013869,-0.0048815
 9,0.00021789,0.00095809,0.00049601,-0.00026705,-0.00006847,-0.00016586
 ,0.00041212,0.00053513,0.00008162,0.00002150,-0.00018144,0.00010545,-0
 .00006675,-0.00035852,0.00027381,-0.00038072,0.00005854,0.00004429,-0.
 00010030,-0.00003356,0.00024036,-0.00030092,-0.00007656,0.00007546,0.0
 0013705,0.00019878,-0.00000897,0.00000793,-0.00002925,-0.00003166,0.00
 004092,0.00001559,-0.00003948,-0.00009058,-0.00009396,0.00000064,0.000
 01802,-0.00000085,0.00004451,0.00006015,0.00004088,-0.00000480,-0.0000
 0548,-0.00001229,0.00004246,-0.00000377,-0.00000173,-0.00001940,0.0000
 1669,0.00000684,-0.04774554,-0.09004002,0.04290473,-0.00116252,-0.0004
 1502,-0.00246083,0.00766045,-0.00200657,-0.00550533,0.00008041,-0.0000
 1427,-0.00002388,0.00000701,0.00003358,0.00001281,0.00000783,0.0000000
 7,-0.00003024,-0.00001157,-0.00002935,0.00003956,-0.06073773,-0.088093
 90,-0.00952875,0.10428426,0.18202975,-0.00016047,0.00166932,-0.0003998
 2,0.00015893,0.00075393,0.00016307,-0.00009063,-0.00011237,0.00020614,
 -0.00025966,-0.00017455,0.00007791,-0.00059906,-0.00110026,-0.00036763
 ,-0.00014136,0.00047819,0.00022810,0.00025115,0.00078696,0.00019577,-0
 .00020928,-0.00008381,0.00010351,-0.00022893,-0.00002176,0.00005815,0.
 00011421,0.00067447,0.00010299,0.00005432,-0.00008813,-0.00001220,-0.0
 0029839,-0.00045522,-0.00005031,-0.00019797,-0.00034474,-0.00008876,0.
 00000025,0.00002732,-0.00000065,0.00015488,-0.00005030,-0.00007911,-0.
 00005552,0.00000285,-0.00000534,-0.00000036,0.00000786,0.00000476,-0.0
 0000078,-0.00000054,0.00000821,-0.00000339,0.00000059,-0.00000665,0.00
 001697,0.00000586,0.00000460,-0.00000150,-0.00000534,-0.00000406,0.088
 60428,0.11179584,0.00662884,-0.00238405,-0.00008795,-0.00147019,-0.028
 58176,-0.05957709,0.01820538,-0.00003520,0.00003186,0.00006042,0.00003
 555,0.00000036,-0.00000647,0.00000571,-0.00000912,-0.00002123,-0.00000
 770,-0.00004148,-0.00002811,-0.05032877,-0.02795932,-0.06389116,-0.005
 81146,-0.02612343,0.04038384\\0.00000394,-0.00000649,-0.00000307,0.000
 00319,-0.00000428,-0.00000808,0.00000093,-0.00000056,-0.00000292,0.000
 00227,-0.00000659,-0.00000308,0.00000124,-0.00000295,-0.00000636,0.000
 00066,-0.00000196,-0.00000098,0.00000493,-0.00000050,0.00000232,0.0000
 0026,0.00000074,-0.00000888,0.00000165,0.00000632,0.00000003,-0.000000
 50,-0.00000709,-0.00000148,0.00000062,-0.00000326,-0.00000171,-0.00000
 261,0.00000628,0.00000189,0.00000051,0.00000388,-0.00000188,0.,0.00000
 748,0.00000092,0.00000102,0.00000371,-0.00000584,0.00000129,0.00000060
 ,-0.00000017,-0.00000168,-0.00000057,-0.00000192,0.00000061,0.00000659
 ,-0.00000095,-0.00000052,0.00000923,-0.00000098,-0.00000007,0.00000610
 ,-0.00000132,0.00000171,0.00000636,-0.00000506,-0.00001710,-0.00000391
 ,0.00000491,0.00001008,0.00000018,0.00001010,-0.00001387,-0.00003010,0
 .00001529,-0.00000276,0.00000157,0.00000202,-0.00000126,0.00000042,0.0
 0000340,-0.00000752,0.00000709,0.00000692,0.00000460,-0.00000206,0.000
 00955,-0.00004995,-0.00006801,-0.00001629,0.00005835,0.00007178,0.0000
 1365\\\@


 The earth never tires,
 The earth is rude, silent, incomprehensible at first,
 Nature is rude and incomprehensible at first,
 Be not discouraged, keep on,
 There are divine things well envelop'd,
 I swear to you there are divine things more beautiful than words can tell.
                                 -- Walt Whitman
 Job cpu time:  0 days  4 hours 56 minutes 26.9 seconds.
 File lengths (MBytes):  RWF=    713 Int=      0 D2E=      0 Chk=     12 Scr=      1
 Normal termination of Gaussian 09 at Fri Feb 21 14:01:48 2014.
