Title Card Required                                                     
SP        UM062X                                                      def2TZVP            
Number of atoms                            I                2
Info1-9                                    I   N=           9
          16          11           0           0           0         110
           1          18        -502
Charge                                     I                0
Multiplicity                               I                3
Number of electrons                        I               16
Number of alpha electrons                  I                9
Number of beta electrons                   I                7
Number of basis functions                  I               62
Number of independent functions            I               62
Number of point charges in /Mol/           I                0
Number of translation vectors              I                0
Atomic numbers                             I   N=           2
           8           8
Nuclear charges                            R   N=           2
  8.00000000E+00  8.00000000E+00
Current cartesian coordinates              R   N=           6
  0.00000000E+00  0.00000000E+00  1.14762312E+00  1.40543298E-16  0.00000000E+00
 -1.14762312E+00
Force Field                                I                0
Int Atom Types                             I   N=           2
           0           0
MM charges                                 R   N=           2
  0.00000000E+00  0.00000000E+00
Integer atomic weights                     I   N=           2
          16          16
Real atomic weights                        R   N=           2
  1.59949146E+01  1.59949146E+01
Atom fragment info                         I   N=           2
           0           0
Atom residue num                           I   N=           2
           0           0
Nuclear spins                              I   N=           2
           0           0
Nuclear ZEff                               R   N=           2
 -5.60000000E+00 -5.60000000E+00
Nuclear ZNuc                               R   N=           2
  8.00000000E+00  8.00000000E+00
Nuclear QMom                               R   N=           2
  0.00000000E+00  0.00000000E+00
Nuclear GFac                               R   N=           2
  0.00000000E+00  0.00000000E+00
MicOpt                                     I   N=           2
          -1          -1
Number of contracted shells                I               22
Number of primitive shells                 I               40
Pure/Cartesian d shells                    I                0
Pure/Cartesian f shells                    I                0
Highest angular momentum                   I                3
Largest degree of contraction              I                6
Shell types                                I   N=          22
           0           0           0           0           0           1
           1           1          -2          -2          -3           0
           0           0           0           0           1           1
           1          -2          -2          -3
Number of primitives per shell             I   N=          22
           6           2           1           1           1           4
           1           1           1           1           1           6
           2           1           1           1           4           1
           1           1           1           1
Shell to atom map                          I   N=          22
           1           1           1           1           1           1
           1           1           1           1           1           2
           2           2           2           2           2           2
           2           2           2           2
Primitive exponents                        R   N=          40
  2.70323826E+04  4.05238714E+03  9.22327227E+02  2.61240710E+02  8.53546414E+01
  3.10350352E+01  1.22608607E+01  4.99870760E+00  1.17031082E+00  4.64747410E-01
  1.85045364E-01  6.32749548E+01  1.46270494E+01  4.45012235E+00  1.52757996E+00
  5.29351179E-01  1.74784213E-01  2.31400000E+00  6.45000000E-01  1.42800000E+00
  2.70323826E+04  4.05238714E+03  9.22327227E+02  2.61240710E+02  8.53546414E+01
  3.10350352E+01  1.22608607E+01  4.99870760E+00  1.17031082E+00  4.64747410E-01
  1.85045364E-01  6.32749548E+01  1.46270494E+01  4.45012235E+00  1.52757996E+00
  5.29351179E-01  1.74784213E-01  2.31400000E+00  6.45000000E-01  1.42800000E+00
Contraction coefficients                   R   N=          40
  5.72273352E-04  4.43532335E-03  2.30201077E-02  9.28224907E-02  2.93785000E-01
  6.74016045E-01  6.38399370E-01  3.95345871E-01  1.00000000E+00  1.00000000E+00
  1.00000000E+00  1.20183322E-02  8.30054218E-02  3.19917439E-01  7.07155429E-01
  1.00000000E+00  1.00000000E+00  1.00000000E+00  1.00000000E+00  1.00000000E+00
  5.72273352E-04  4.43532335E-03  2.30201077E-02  9.28224907E-02  2.93785000E-01
  6.74016045E-01  6.38399370E-01  3.95345871E-01  1.00000000E+00  1.00000000E+00
  1.00000000E+00  1.20183322E-02  8.30054218E-02  3.19917439E-01  7.07155429E-01
  1.00000000E+00  1.00000000E+00  1.00000000E+00  1.00000000E+00  1.00000000E+00
Coordinates of each shell                  R   N=          66
  0.00000000E+00  0.00000000E+00  1.14762312E+00  0.00000000E+00  0.00000000E+00
  1.14762312E+00  0.00000000E+00  0.00000000E+00  1.14762312E+00  0.00000000E+00
  0.00000000E+00  1.14762312E+00  0.00000000E+00  0.00000000E+00  1.14762312E+00
  0.00000000E+00  0.00000000E+00  1.14762312E+00  0.00000000E+00  0.00000000E+00
  1.14762312E+00  0.00000000E+00  0.00000000E+00  1.14762312E+00  0.00000000E+00
  0.00000000E+00  1.14762312E+00  0.00000000E+00  0.00000000E+00  1.14762312E+00
  0.00000000E+00  0.00000000E+00  1.14762312E+00  1.40543298E-16  0.00000000E+00
 -1.14762312E+00  1.40543298E-16  0.00000000E+00 -1.14762312E+00  1.40543298E-16
  0.00000000E+00 -1.14762312E+00  1.40543298E-16  0.00000000E+00 -1.14762312E+00
  1.40543298E-16  0.00000000E+00 -1.14762312E+00  1.40543298E-16  0.00000000E+00
 -1.14762312E+00  1.40543298E-16  0.00000000E+00 -1.14762312E+00  1.40543298E-16
  0.00000000E+00 -1.14762312E+00  1.40543298E-16  0.00000000E+00 -1.14762312E+00
  1.40543298E-16  0.00000000E+00 -1.14762312E+00  1.40543298E-16  0.00000000E+00
 -1.14762312E+00
Constraint Structure                       R   N=           6
  0.00000000E+00  0.00000000E+00  1.14762312E+00  1.40543298E-16  0.00000000E+00
 -1.14762312E+00
Num ILSW                                   I              100
ILSW                                       I   N=         100
           1           0           0           0           2           0
           0           0           0           0        4336          -1
           0           0           0           0           0           0
           0           0           1           0           0           0
           1           0           0           0           0           0
           0           0      100000           0          -1           0
           0           0           0           0           0           0
           0           0           0           1           0           0
           0           0           1           0           0           0
           0           0           4          41           0           0
           0           0          55           0           0           0
           0           0           0           0           0           0
           0           0           0           0           0           0
           0           0           0           0           0           0
           0           0           0           0           0           0
           0           0           0           0           0           0
           0           0           0           0
Num RLSW                                   I               41
RLSW                                       R   N=          41
  1.00000000E+00  1.00000000E+00  1.00000000E+00  1.00000000E+00  5.40000000E-01
  0.00000000E+00  0.00000000E+00  1.00000000E+00  0.00000000E+00  0.00000000E+00
  0.00000000E+00  0.00000000E+00  1.00000000E+00  0.00000000E+00  0.00000000E+00
  0.00000000E+00  0.00000000E+00  1.00000000E+00  0.00000000E+00  0.00000000E+00
  0.00000000E+00  0.00000000E+00  1.00000000E+00  0.00000000E+00  0.00000000E+00
  0.00000000E+00  0.00000000E+00  1.00000000E+00  0.00000000E+00  0.00000000E+00
  0.00000000E+00  0.00000000E+00  1.00000000E+00  0.00000000E+00  0.00000000E+00
  0.00000000E+00  0.00000000E+00  0.00000000E+00  1.00000000E+00  1.00000000E+00
  0.00000000E+00
ECP-MxAtEC                                 I           250000
ECP-MaxLECP                                I               10
ECP-MaxAtL                                 I          2250000
ECP-MxTECP                                 I         11250000
ECP-LenNCZ                                 I                0
ECP-KFirst                                 I   N=          20
           0           0           0           0           0           0
           0           0           0           0           0           0
           0           0           0           0           0           0
           0           0
ECP-KLast                                  I   N=          20
           0           0           0           0           0           0
           0           0           0           0           0           0
           0           0           0           0           0           0
           0           0
ECP-LMax                                   I   N=           2
           0           0
ECP-LPSkip                                 I   N=           2
           1           1
ECP-RNFroz                                 R   N=           2
  0.00000000E+00  0.00000000E+00
ECP-NLP                                    I                0
ECP-CLP1                                   R      0.000000000000000E+00
ECP-CLP2                                   R      0.000000000000000E+00
ECP-ZLP                                    R      0.000000000000000E+00
MxBond                                     I                1
NBond                                      I   N=           2
           1           1
IBond                                      I   N=           2
           2           1
RBond                                      R   N=           2
  2.00000000E+00  2.00000000E+00
Virial Ratio                               R      2.003970206451003E+00
SCF Energy                                 R     -1.503260784699865E+02
Total Energy                               R     -1.503260784699865E+02
S**2                                       R      2.012699057075683E+00
S**2 after annihilation                    R      2.000077905740235E+00
RMS Density                                R      2.029304934922888E-09
External E-field                           R   N=          35
  0.00000000E+00  0.00000000E+00  0.00000000E+00  0.00000000E+00  0.00000000E+00
  0.00000000E+00  0.00000000E+00  0.00000000E+00  0.00000000E+00  0.00000000E+00
  0.00000000E+00  0.00000000E+00  0.00000000E+00  0.00000000E+00  0.00000000E+00
  0.00000000E+00  0.00000000E+00  0.00000000E+00  0.00000000E+00  0.00000000E+00
  0.00000000E+00  0.00000000E+00  0.00000000E+00  0.00000000E+00  0.00000000E+00
  0.00000000E+00  0.00000000E+00  0.00000000E+00  0.00000000E+00  0.00000000E+00
  0.00000000E+00  0.00000000E+00  0.00000000E+00  0.00000000E+00  0.00000000E+00
IOpCl                                      I                1
IROHF                                      I                0
Alpha Orbital Energies                     R   N=          62
 -1.97916287E+01 -1.97912792E+01 -1.44241068E+00 -9.69187522E-01 -6.69013645E-01
 -6.69013645E-01 -6.42872045E-01 -4.04947197E-01 -4.04947197E-01  2.25659110E-01
  3.69831964E-01  4.16316039E-01  4.16316039E-01  4.75971824E-01  4.77875199E-01
  5.30498112E-01  5.30498112E-01  7.78084447E-01  1.26783844E+00  1.26799231E+00
  1.33879186E+00  1.33879186E+00  1.65958907E+00  1.65980543E+00  1.88695590E+00
  2.14007531E+00  2.14007531E+00  2.15326727E+00  2.44431503E+00  2.44431503E+00
  2.54977718E+00  2.77572539E+00  2.78261485E+00  2.78261485E+00  2.90108444E+00
  4.26523941E+00  4.59878462E+00  4.59905327E+00  4.63953670E+00  4.63953670E+00
  4.93430633E+00  4.93430633E+00  4.98365448E+00  5.16503666E+00  5.16503666E+00
  5.68020959E+00  5.68021926E+00  6.02730741E+00  6.02753428E+00  6.23231273E+00
  6.23255411E+00  6.26514626E+00  6.26514626E+00  6.34131326E+00  6.38698509E+00
  6.38698509E+00  7.16410828E+00  7.16410828E+00  7.38010978E+00  8.58015898E+00
  4.31004710E+01  4.36378531E+01
Beta Orbital Energies                      R   N=          62
 -1.97671743E+01 -1.97664909E+01 -1.36962433E+00 -8.61112748E-01 -5.90713197E-01
 -5.33326270E-01 -5.33326270E-01 -5.81187883E-02 -5.81187883E-02  2.47457597E-01
  3.69174881E-01  4.34578186E-01  4.34578186E-01  4.66533607E-01  5.01581705E-01
  5.48514210E-01  5.48514210E-01  7.83766810E-01  1.29176073E+00  1.29180778E+00
  1.37397989E+00  1.37397989E+00  1.70530042E+00  1.70535995E+00  1.89666759E+00
  2.16320189E+00  2.16674831E+00  2.16674831E+00  2.51642115E+00  2.51642115E+00
  2.58506953E+00  2.80535537E+00  2.84337439E+00  2.84337439E+00  2.92936152E+00
  4.28067794E+00  4.62060690E+00  4.62067884E+00  4.63809503E+00  4.63809503E+00
  4.96036592E+00  4.96036592E+00  4.99141211E+00  5.19420858E+00  5.19420858E+00
  5.69966329E+00  5.69974231E+00  6.13635074E+00  6.13638905E+00  6.30774869E+00
  6.30774869E+00  6.34099852E+00  6.34105539E+00  6.38726971E+00  6.42502063E+00
  6.42502063E+00  7.16279015E+00  7.16279015E+00  7.40851233E+00  8.56768988E+00
  4.31019652E+01  4.36402082E+01
Alpha MO coefficients                      R   N=        3844
  3.08008752E-01  4.53113060E-01  1.94675699E-02 -8.23634194E-03  2.34977328E-03
  0.00000000E+00  0.00000000E+00 -1.57980450E-03  0.00000000E+00  0.00000000E+00
  6.18688647E-04  0.00000000E+00  0.00000000E+00 -2.98059323E-04  9.22991792E-05
  0.00000000E+00  0.00000000E+00  1.73723621E-16  0.00000000E+00 -3.86420765E-04
  0.00000000E+00  0.00000000E+00 -2.60210673E-16  0.00000000E+00  3.31255434E-04
  0.00000000E+00  0.00000000E+00  6.09726640E-17  0.00000000E+00  0.00000000E+00
  0.00000000E+00  3.08008752E-01  4.53113060E-01  1.94675699E-02 -8.23634194E-03
  2.34977328E-03  0.00000000E+00  0.00000000E+00  1.57980450E-03  0.00000000E+00
  0.00000000E+00 -6.18688647E-04  0.00000000E+00  0.00000000E+00  2.98059323E-04
  9.22991792E-05  0.00000000E+00  0.00000000E+00  1.73723621E-16  0.00000000E+00
 -3.86420765E-04  0.00000000E+00  0.00000000E+00 -2.60210673E-16  0.00000000E+00
 -3.31255434E-04  0.00000000E+00  0.00000000E+00 -6.09726640E-17  0.00000000E+00
  0.00000000E+00  0.00000000E+00  3.08051681E-01  4.52974163E-01  2.25494019E-02
 -1.89494945E-02  8.19906533E-03  0.00000000E+00  0.00000000E+00 -1.73111146E-03
  0.00000000E+00  0.00000000E+00  7.85875597E-03  0.00000000E+00  0.00000000E+00
 -2.55254511E-03 -3.79602629E-05  0.00000000E+00  0.00000000E+00  5.18104199E-17
  0.00000000E+00 -3.22278180E-03  0.00000000E+00  0.00000000E+00 -9.73507231E-19
  0.00000000E+00  4.68587694E-04  0.00000000E+00  0.00000000E+00 -5.93275368E-17
  0.00000000E+00  0.00000000E+00  0.00000000E+00 -3.08051681E-01 -4.52974163E-01
 -2.25494019E-02  1.89494945E-02 -8.19906533E-03  0.00000000E+00  0.00000000E+00
 -1.73111146E-03  0.00000000E+00  0.00000000E+00  7.85875597E-03  0.00000000E+00
  0.00000000E+00 -2.55254511E-03  3.79602629E-05  0.00000000E+00  0.00000000E+00
 -5.18104199E-17  0.00000000E+00  3.22278180E-03  0.00000000E+00  0.00000000E+00
  9.73507231E-19  0.00000000E+00  4.68587694E-04  0.00000000E+00  0.00000000E+00
 -5.93275368E-17  0.00000000E+00  0.00000000E+00  0.00000000E+00 -7.14733137E-02
 -1.71199445E-01  2.54242541E-01  3.11359963E-01  6.96905357E-02  0.00000000E+00
  0.00000000E+00 -1.17882185E-01  0.00000000E+00  0.00000000E+00 -8.42564183E-02
  0.00000000E+00  0.00000000E+00 -4.62971921E-03  8.99374385E-03  0.00000000E+00
  0.00000000E+00  7.22446077E-17  0.00000000E+00  1.66558358E-02  0.00000000E+00
  0.00000000E+00 -1.19458570E-16  0.00000000E+00 -5.68001561E-03  0.00000000E+00
  0.00000000E+00 -1.00636846E-16  0.00000000E+00  0.00000000E+00  0.00000000E+00
 -7.14733137E-02 -1.71199445E-01  2.54242541E-01  3.11359963E-01  6.96905357E-02
  0.00000000E+00  0.00000000E+00  1.17882185E-01  0.00000000E+00  0.00000000E+00
  8.42564183E-02  0.00000000E+00  0.00000000E+00  4.62971921E-03  8.99374385E-03
  0.00000000E+00  0.00000000E+00  7.22446077E-17  0.00000000E+00  1.66558358E-02
  0.00000000E+00  0.00000000E+00 -1.19458570E-16  0.00000000E+00  5.68001561E-03
  0.00000000E+00  0.00000000E+00  1.00636846E-16  0.00000000E+00  0.00000000E+00
  0.00000000E+00 -7.65864883E-02 -1.85542298E-01  2.88008571E-01  3.86592172E-01
  2.30399286E-01  0.00000000E+00  0.00000000E+00  9.90706677E-02  0.00000000E+00
  0.00000000E+00  6.53292534E-02  0.00000000E+00  0.00000000E+00  1.12808103E-03
 -5.37617799E-03  0.00000000E+00  0.00000000E+00  1.66591188E-17  0.00000000E+00
 -8.22755006E-03  0.00000000E+00  0.00000000E+00 -3.21092114E-17  0.00000000E+00
  4.20559662E-04  0.00000000E+00  0.00000000E+00  1.55194262E-16  0.00000000E+00
  0.00000000E+00  0.00000000E+00  7.65864883E-02  1.85542298E-01 -2.88008571E-01
 -3.86592172E-01 -2.30399286E-01  0.00000000E+00  0.00000000E+00  9.90706677E-02
  0.00000000E+00  0.00000000E+00  6.53292534E-02  0.00000000E+00  0.00000000E+00
  1.12808103E-03  5.37617799E-03  0.00000000E+00  0.00000000E+00 -1.66591188E-17
  0.00000000E+00  8.22755006E-03  0.00000000E+00  0.00000000E+00  3.21092114E-17
  0.00000000E+00  4.20559662E-04  0.00000000E+00  0.00000000E+00  1.55194262E-16
  0.00000000E+00  0.00000000E+00  0.00000000E+00  0.00000000E+00  0.00000000E+00
  0.00000000E+00  0.00000000E+00  0.00000000E+00  3.49273996E-01  0.00000000E+00
  0.00000000E+00  2.88277323E-01  0.00000000E+00  0.00000000E+00  1.20651698E-01
  0.00000000E+00  0.00000000E+00  0.00000000E+00 -8.84202603E-03  0.00000000E+00
  0.00000000E+00  0.00000000E+00  0.00000000E+00 -2.44357884E-02  0.00000000E+00
  0.00000000E+00  0.00000000E+00  0.00000000E+00  6.10874865E-03  0.00000000E+00
  0.00000000E+00  0.00000000E+00  8.61319965E-06  0.00000000E+00  0.00000000E+00
  0.00000000E+00  0.00000000E+00  0.00000000E+00  0.00000000E+00  3.49273996E-01
  0.00000000E+00  0.00000000E+00  2.88277323E-01  0.00000000E+00  0.00000000E+00
  1.20651698E-01  0.00000000E+00  0.00000000E+00  0.00000000E+00  8.84202603E-03
  0.00000000E+00  0.00000000E+00  0.00000000E+00  0.00000000E+00  2.44357884E-02
  0.00000000E+00  0.00000000E+00  0.00000000E+00  0.00000000E+00  6.10874865E-03
  0.00000000E+00  0.00000000E+00  0.00000000E+00  8.61319965E-06  0.00000000E+00
  0.00000000E+00  0.00000000E+00  0.00000000E+00  0.00000000E+00  0.00000000E+00
  0.00000000E+00  3.49273996E-01  0.00000000E+00  0.00000000E+00  2.88277323E-01
  0.00000000E+00  0.00000000E+00  1.20651698E-01  0.00000000E+00  0.00000000E+00
  0.00000000E+00 -8.84202603E-03  0.00000000E+00  0.00000000E+00  0.00000000E+00
  0.00000000E+00 -2.44357884E-02  0.00000000E+00  0.00000000E+00  0.00000000E+00
  0.00000000E+00  6.10874865E-03  0.00000000E+00  0.00000000E+00  0.00000000E+00
 -8.61319965E-06  0.00000000E+00  0.00000000E+00  0.00000000E+00  0.00000000E+00
  0.00000000E+00  0.00000000E+00  3.49273996E-01  0.00000000E+00  0.00000000E+00
  2.88277323E-01  0.00000000E+00  0.00000000E+00  1.20651698E-01  0.00000000E+00
  0.00000000E+00  0.00000000E+00  8.84202603E-03  0.00000000E+00  0.00000000E+00
  0.00000000E+00  0.00000000E+00  2.44357884E-02  0.00000000E+00  0.00000000E+00
  0.00000000E+00  0.00000000E+00  6.10874865E-03  0.00000000E+00  0.00000000E+00
  0.00000000E+00 -8.61319965E-06 -2.46539048E-02 -6.01575730E-02  9.99454791E-02
  1.19550824E-01  1.64813289E-01  0.00000000E+00  0.00000000E+00  3.44772934E-01
  0.00000000E+00  0.00000000E+00  2.74318449E-01  0.00000000E+00  0.00000000E+00
  1.02634535E-01 -1.31488235E-02  0.00000000E+00  0.00000000E+00 -9.11623944E-18
  0.00000000E+00 -2.18038312E-02  0.00000000E+00  0.00000000E+00  2.93189660E-17
  0.00000000E+00  5.55943170E-03  0.00000000E+00  0.00000000E+00 -6.62060571E-17
  0.00000000E+00  0.00000000E+00  0.00000000E+00 -2.46539048E-02 -6.01575730E-02
  9.99454791E-02  1.19550824E-01  1.64813289E-01  0.00000000E+00  0.00000000E+00
 -3.44772934E-01  0.00000000E+00  0.00000000E+00 -2.74318449E-01  0.00000000E+00
  0.00000000E+00 -1.02634535E-01 -1.31488235E-02  0.00000000E+00  0.00000000E+00
 -9.11623944E-18  0.00000000E+00 -2.18038312E-02  0.00000000E+00  0.00000000E+00
  2.93189660E-17  0.00000000E+00 -5.55943170E-03  0.00000000E+00  0.00000000E+00
  6.62060571E-17  0.00000000E+00  0.00000000E+00  0.00000000E+00  0.00000000E+00
  0.00000000E+00  0.00000000E+00  0.00000000E+00  0.00000000E+00  0.00000000E+00
  4.00244702E-01  0.00000000E+00  0.00000000E+00  3.38335095E-01  0.00000000E+00
  0.00000000E+00  2.47025666E-01  0.00000000E+00  0.00000000E+00  0.00000000E+00
  1.98574535E-03  0.00000000E+00  0.00000000E+00  0.00000000E+00  0.00000000E+00
  6.35018829E-03  0.00000000E+00  0.00000000E+00  0.00000000E+00  0.00000000E+00
 -2.08302578E-03  0.00000000E+00  0.00000000E+00  0.00000000E+00 -4.58674705E-06
  0.00000000E+00  0.00000000E+00  0.00000000E+00  0.00000000E+00  0.00000000E+00
  0.00000000E+00 -4.00244702E-01  0.00000000E+00  0.00000000E+00 -3.38335095E-01
  0.00000000E+00  0.00000000E+00 -2.47025666E-01  0.00000000E+00  0.00000000E+00
  0.00000000E+00  1.98574535E-03  0.00000000E+00  0.00000000E+00  0.00000000E+00
  0.00000000E+00  6.35018829E-03  0.00000000E+00  0.00000000E+00  0.00000000E+00
  0.00000000E+00  2.08302578E-03  0.00000000E+00  0.00000000E+00  0.00000000E+00
  4.58674705E-06  0.00000000E+00  0.00000000E+00  0.00000000E+00  0.00000000E+00
  0.00000000E+00  4.00244702E-01  0.00000000E+00  0.00000000E+00  3.38335095E-01
  0.00000000E+00  0.00000000E+00  2.47025666E-01  0.00000000E+00  0.00000000E+00
  0.00000000E+00  1.98574535E-03  0.00000000E+00  0.00000000E+00  0.00000000E+00
  0.00000000E+00  6.35018829E-03  0.00000000E+00  0.00000000E+00  0.00000000E+00
  0.00000000E+00 -2.08302578E-03  0.00000000E+00  0.00000000E+00  0.00000000E+00
  4.58674705E-06  0.00000000E+00  0.00000000E+00  0.00000000E+00  0.00000000E+00
  0.00000000E+00  0.00000000E+00 -4.00244702E-01  0.00000000E+00  0.00000000E+00
 -3.38335095E-01  0.00000000E+00  0.00000000E+00 -2.47025666E-01  0.00000000E+00
  0.00000000E+00  0.00000000E+00  1.98574535E-03  0.00000000E+00  0.00000000E+00
  0.00000000E+00  0.00000000E+00  6.35018829E-03  0.00000000E+00  0.00000000E+00
  0.00000000E+00  0.00000000E+00  2.08302578E-03  0.00000000E+00  0.00000000E+00
  0.00000000E+00 -4.58674705E-06  0.00000000E+00 -4.10562681E-02 -1.01752709E-01
  1.62014573E-01  3.04128107E-01  1.86140216E+00  0.00000000E+00  0.00000000E+00
 -2.74775866E-01  0.00000000E+00  0.00000000E+00 -2.68147381E-01  0.00000000E+00
  0.00000000E+00 -1.47253377E+00 -1.67429298E-02  0.00000000E+00  0.00000000E+00
 -6.07132275E-18  0.00000000E+00  1.19313503E-02  0.00000000E+00  0.00000000E+00
 -7.40596855E-18  0.00000000E+00 -1.41814432E-03  0.00000000E+00  0.00000000E+00
  5.39290729E-17  0.00000000E+00  0.00000000E+00  0.00000000E+00  4.10562681E-02
  1.01752709E-01 -1.62014573E-01 -3.04128107E-01 -1.86140216E+00  0.00000000E+00
  0.00000000E+00 -2.74775866E-01  0.00000000E+00  0.00000000E+00 -2.68147381E-01
  0.00000000E+00  0.00000000E+00 -1.47253377E+00  1.67429298E-02  0.00000000E+00
  0.00000000E+00  6.07132275E-18  0.00000000E+00 -1.19313503E-02  0.00000000E+00
  0.00000000E+00  7.40596855E-18  0.00000000E+00 -1.41814432E-03  0.00000000E+00
  0.00000000E+00  5.39290729E-17  0.00000000E+00  0.00000000E+00  0.00000000E+00
 -3.77411847E-02 -8.04227692E-02 -5.06586453E-02  1.30497787E+00 -1.25907938E+00
  0.00000000E+00  0.00000000E+00  7.28135440E-02  0.00000000E+00  0.00000000E+00
  1.08678389E-01  0.00000000E+00  0.00000000E+00 -8.62997756E-02  6.60192017E-03
  0.00000000E+00  0.00000000E+00  1.31176736E-16  0.00000000E+00  7.36179362E-03
  0.00000000E+00  0.00000000E+00 -1.48238559E-16  0.00000000E+00  3.17720180E-03
  0.00000000E+00  0.00000000E+00  2.68641066E-17  0.00000000E+00  0.00000000E+00
  0.00000000E+00 -3.77411847E-02 -8.04227692E-02 -5.06586453E-02  1.30497787E+00
 -1.25907938E+00  0.00000000E+00  0.00000000E+00 -7.28135440E-02  0.00000000E+00
  0.00000000E+00 -1.08678389E-01  0.00000000E+00  0.00000000E+00  8.62997756E-02
  6.60192017E-03  0.00000000E+00  0.00000000E+00  1.31176736E-16  0.00000000E+00
  7.36179362E-03  0.00000000E+00  0.00000000E+00 -1.48238559E-16  0.00000000E+00
 -3.17720180E-03  0.00000000E+00  0.00000000E+00 -2.68641066E-17  0.00000000E+00
  0.00000000E+00  0.00000000E+00  0.00000000E+00  0.00000000E+00  0.00000000E+00
  0.00000000E+00  0.00000000E+00 -1.88609422E-01  0.00000000E+00  0.00000000E+00
 -4.53728621E-01  0.00000000E+00  0.00000000E+00  7.29926097E-01  0.00000000E+00
  0.00000000E+00  0.00000000E+00  4.12969223E-03  0.00000000E+00  0.00000000E+00
  0.00000000E+00  0.00000000E+00  3.41489750E-02  0.00000000E+00  0.00000000E+00
  0.00000000E+00  0.00000000E+00 -1.52745157E-03  0.00000000E+00  0.00000000E+00
  0.00000000E+00 -1.21170601E-06  0.00000000E+00  0.00000000E+00  0.00000000E+00
  0.00000000E+00  0.00000000E+00  0.00000000E+00 -1.88609422E-01  0.00000000E+00
  0.00000000E+00 -4.53728621E-01  0.00000000E+00  0.00000000E+00  7.29926097E-01
  0.00000000E+00  0.00000000E+00  0.00000000E+00 -4.12969223E-03  0.00000000E+00
  0.00000000E+00  0.00000000E+00  0.00000000E+00 -3.41489750E-02  0.00000000E+00
  0.00000000E+00  0.00000000E+00  0.00000000E+00 -1.52745157E-03  0.00000000E+00
  0.00000000E+00  0.00000000E+00 -1.21170601E-06  0.00000000E+00  0.00000000E+00
  0.00000000E+00  0.00000000E+00  0.00000000E+00  0.00000000E+00  0.00000000E+00
 -1.88609422E-01  0.00000000E+00  0.00000000E+00 -4.53728621E-01  0.00000000E+00
  0.00000000E+00  7.29926097E-01  0.00000000E+00  0.00000000E+00  0.00000000E+00
  4.12969223E-03  0.00000000E+00  0.00000000E+00  0.00000000E+00  0.00000000E+00
  3.41489750E-02  0.00000000E+00  0.00000000E+00  0.00000000E+00  0.00000000E+00
 -1.52745157E-03  0.00000000E+00  0.00000000E+00  0.00000000E+00  1.21170601E-06
  0.00000000E+00  0.00000000E+00  0.00000000E+00  0.00000000E+00  0.00000000E+00
  0.00000000E+00 -1.88609422E-01  0.00000000E+00  0.00000000E+00 -4.53728621E-01
  0.00000000E+00  0.00000000E+00  7.29926097E-01  0.00000000E+00  0.00000000E+00
  0.00000000E+00 -4.12969223E-03  0.00000000E+00  0.00000000E+00  0.00000000E+00
  0.00000000E+00 -3.41489750E-02  0.00000000E+00  0.00000000E+00  0.00000000E+00
  0.00000000E+00 -1.52745157E-03  0.00000000E+00  0.00000000E+00  0.00000000E+00
  1.21170601E-06 -1.22163447E-03 -1.16425582E-03 -3.64827878E-02  3.44557061E-01
  3.62287818E-02  0.00000000E+00  0.00000000E+00 -1.17458239E-01  0.00000000E+00
  0.00000000E+00 -3.88748235E-01  0.00000000E+00  0.00000000E+00  1.10982974E+00
  2.41082314E-02  0.00000000E+00  0.00000000E+00 -2.13049853E-17  0.00000000E+00
 -4.16771716E-03  0.00000000E+00  0.00000000E+00 -1.76083255E-17  0.00000000E+00
  2.75715652E-03  0.00000000E+00  0.00000000E+00 -2.57217353E-17  0.00000000E+00
  0.00000000E+00  0.00000000E+00 -1.22163447E-03 -1.16425582E-03 -3.64827878E-02
  3.44557061E-01  3.62287818E-02  0.00000000E+00  0.00000000E+00  1.17458239E-01
  0.00000000E+00  0.00000000E+00  3.88748235E-01  0.00000000E+00  0.00000000E+00
 -1.10982974E+00  2.41082314E-02  0.00000000E+00  0.00000000E+00 -2.13049853E-17
  0.00000000E+00 -4.16771716E-03  0.00000000E+00  0.00000000E+00 -1.76083255E-17
  0.00000000E+00 -2.75715652E-03  0.00000000E+00  0.00000000E+00  2.57217353E-17
  0.00000000E+00  0.00000000E+00  0.00000000E+00 -4.23766580E-03 -1.51056432E-02
  9.25731204E-02 -2.01676011E-01 -9.64075653E-01  0.00000000E+00  0.00000000E+00
 -3.73896741E-01  0.00000000E+00  0.00000000E+00 -4.83521381E-01  0.00000000E+00
  0.00000000E+00  1.24333503E+00  6.32967400E-04  0.00000000E+00  0.00000000E+00
 -5.84078492E-17  0.00000000E+00 -1.20137067E-01  0.00000000E+00  0.00000000E+00
 -2.32997702E-16  0.00000000E+00  6.90766676E-03  0.00000000E+00  0.00000000E+00
 -1.25152309E-17  0.00000000E+00  0.00000000E+00  0.00000000E+00  4.23766580E-03
  1.51056432E-02 -9.25731204E-02  2.01676011E-01  9.64075653E-01  0.00000000E+00
  0.00000000E+00 -3.73896741E-01  0.00000000E+00  0.00000000E+00 -4.83521381E-01
  0.00000000E+00  0.00000000E+00  1.24333503E+00 -6.32967400E-04  0.00000000E+00
  0.00000000E+00  5.84078492E-17  0.00000000E+00  1.20137067E-01  0.00000000E+00
  0.00000000E+00  2.32997702E-16  0.00000000E+00  6.90766676E-03  0.00000000E+00
  0.00000000E+00 -1.25152309E-17  0.00000000E+00  0.00000000E+00  0.00000000E+00
  0.00000000E+00  0.00000000E+00  0.00000000E+00  0.00000000E+00  0.00000000E+00
 -1.90639069E-01  0.00000000E+00  0.00000000E+00 -4.50693718E-01  0.00000000E+00
  0.00000000E+00  1.41072652E+00  0.00000000E+00  0.00000000E+00  0.00000000E+00
  9.44150890E-03  0.00000000E+00  0.00000000E+00  0.00000000E+00  0.00000000E+00
 -1.42476598E-02  0.00000000E+00  0.00000000E+00  0.00000000E+00  0.00000000E+00
  1.96302995E-03  0.00000000E+00  0.00000000E+00  0.00000000E+00  2.62771508E-06
  0.00000000E+00  0.00000000E+00  0.00000000E+00  0.00000000E+00  0.00000000E+00
  0.00000000E+00  1.90639069E-01  0.00000000E+00  0.00000000E+00  4.50693718E-01
  0.00000000E+00  0.00000000E+00 -1.41072652E+00  0.00000000E+00  0.00000000E+00
  0.00000000E+00  9.44150890E-03  0.00000000E+00  0.00000000E+00  0.00000000E+00
  0.00000000E+00 -1.42476598E-02  0.00000000E+00  0.00000000E+00  0.00000000E+00
  0.00000000E+00 -1.96302995E-03  0.00000000E+00  0.00000000E+00  0.00000000E+00
 -2.62771508E-06  0.00000000E+00  0.00000000E+00  0.00000000E+00  0.00000000E+00