 Entering Gaussian System, Link 0=g09
 Initial command:
 /usr/caen/gaussian-09revc/g09/l1.exe /scratch/avioli_flux/hetanjin/scratch/Gau-69128.inp -scrdir=/scratch/avioli_flux/hetanjin/scratch/
 Entering Link 1 = /usr/caen/gaussian-09revc/g09/l1.exe PID=     69129.
  
 Copyright (c) 1988,1990,1992,1993,1995,1998,2003,2009,2011,
            Gaussian, Inc.  All Rights Reserved.
  
 This is part of the Gaussian(R) 09 program.  It is based on
 the Gaussian(R) 03 system (copyright 2003, Gaussian, Inc.),
 the Gaussian(R) 98 system (copyright 1998, Gaussian, Inc.),
 the Gaussian(R) 94 system (copyright 1995, Gaussian, Inc.),
 the Gaussian 92(TM) system (copyright 1992, Gaussian, Inc.),
 the Gaussian 90(TM) system (copyright 1990, Gaussian, Inc.),
 the Gaussian 88(TM) system (copyright 1988, Gaussian, Inc.),
 the Gaussian 86(TM) system (copyright 1986, Carnegie Mellon
 University), and the Gaussian 82(TM) system (copyright 1983,
 Carnegie Mellon University). Gaussian is a federally registered
 trademark of Gaussian, Inc.
  
 This software contains proprietary and confidential information,
 including trade secrets, belonging to Gaussian, Inc.
  
 This software is provided under written license and may be
 used, copied, transmitted, or stored only in accord with that
 written license.
  
 The following legend is applicable only to US Government
 contracts under FAR:
  
                    RESTRICTED RIGHTS LEGEND
  
 Use, reproduction and disclosure by the US Government is
 subject to restrictions as set forth in subparagraphs (a)
 and (c) of the Commercial Computer Software - Restricted
 Rights clause in FAR 52.227-19.
  
 Gaussian, Inc.
 340 Quinnipiac St., Bldg. 40, Wallingford CT 06492
  
  
 ---------------------------------------------------------------
 Warning -- This program may not be used in any manner that
 competes with the business of Gaussian, Inc. or will provide
 assistance to any competitor of Gaussian, Inc.  The licensee
 of this program is prohibited from giving any competitor of
 Gaussian, Inc. access to this program.  By using this program,
 the user acknowledges that Gaussian, Inc. is engaged in the
 business of creating and licensing software in the field of
 computational chemistry and represents and warrants to the
 licensee that it is not a competitor of Gaussian, Inc. and that
 it will not use this program in any manner prohibited above.
 ---------------------------------------------------------------
  

 Cite this work as:
 Gaussian 09, Revision C.01,
 M. J. Frisch, G. W. Trucks, H. B. Schlegel, G. E. Scuseria, 
 M. A. Robb, J. R. Cheeseman, G. Scalmani, V. Barone, B. Mennucci, 
 G. A. Petersson, H. Nakatsuji, M. Caricato, X. Li, H. P. Hratchian, 
 A. F. Izmaylov, J. Bloino, G. Zheng, J. L. Sonnenberg, M. Hada, 
 M. Ehara, K. Toyota, R. Fukuda, J. Hasegawa, M. Ishida, T. Nakajima, 
 Y. Honda, O. Kitao, H. Nakai, T. Vreven, J. A. Montgomery, Jr., 
 J. E. Peralta, F. Ogliaro, M. Bearpark, J. J. Heyd, E. Brothers, 
 K. N. Kudin, V. N. Staroverov, T. Keith, R. Kobayashi, J. Normand, 
 K. Raghavachari, A. Rendell, J. C. Burant, S. S. Iyengar, J. Tomasi, 
 M. Cossi, N. Rega, J. M. Millam, M. Klene, J. E. Knox, J. B. Cross, 
 V. Bakken, C. Adamo, J. Jaramillo, R. Gomperts, R. E. Stratmann, 
 O. Yazyev, A. J. Austin, R. Cammi, C. Pomelli, J. W. Ochterski, 
 R. L. Martin, K. Morokuma, V. G. Zakrzewski, G. A. Voth, 
 P. Salvador, J. J. Dannenberg, S. Dapprich, A. D. Daniels, 
 O. Farkas, J. B. Foresman, J. V. Ortiz, J. Cioslowski, 
 and D. J. Fox, Gaussian, Inc., Wallingford CT, 2010.
 
 ******************************************
 Gaussian 09:  EM64L-G09RevC.01 23-Sep-2011
                 3-Feb-2014 
 ******************************************
 %Mem=36GB
 %nprocshared=12
 Will use up to   12 processors via shared memory.
 %chk=C9H19O2_1_26.chk
 ----------------------------------------
 # cbs-qb3 opt=(calcfc,modredundant) freq
 ----------------------------------------
 1/10=4,14=-1,18=120,19=15,26=3,38=1/1,3;
 2/9=110,12=2,17=6,18=5,40=1/2;
 3/5=4,6=6,7=700,11=2,16=1,25=1,30=1,71=2,74=-5/1,2,3;
 4//1;
 5/5=2,38=5/2;
 8/6=4,10=90,11=11/1;
 11/6=1,8=1,9=11,15=111,16=1/1,2,10;
 10/6=1,7=6,13=1/2;
 6/7=2,8=2,9=2,10=2,28=1/1;
 7/10=1,18=20,25=1/1,2,3,16;
 1/10=4,14=-1,18=20,19=15/3(2);
 2/9=110/2;
 99//99;
 2/9=110/2;
 3/5=4,6=6,7=700,11=2,16=1,25=1,30=1,71=1,74=-5/1,2,3;
 4/5=5,16=3/1;
 5/5=2,38=5/2;
 7//1,2,3,16;
 1/14=-1,18=20,19=15/3(-5);
 2/9=110/2;
 6/7=2,8=2,9=2,10=2,19=2,28=1/1;
 99/9=1/99;
 -----------------------------------------
 C9H19O2_1_26 using CBS-QB3 to cal. energy
 -----------------------------------------
 Charge =  0 Multiplicity = 2
 Symbolic Z-Matrix:
 6                    -3.17301  -1.66954  -0.19397 
 1                    -2.87617  -2.71161  -0.33638 
 1                    -3.39945  -1.24766  -1.17651 
 1                    -4.09526  -1.66148   0.39469 
 6                    -2.05413  -0.87986   0.50238 
 1                    -1.87109  -1.34161   1.4836 
 6                    -0.73961  -0.93993  -0.29882 
 1                    -0.55589  -1.99184  -0.54858 
 1                    -0.8744   -0.42299  -1.25598 
 6                     0.49652  -0.37953   0.41648 
 1                     0.59872  -0.86202   1.39833 
 1                     0.35867   0.68881   0.60351 
 6                     1.78599  -0.59801  -0.38576 
 1                     1.69941  -0.08941  -1.35556 
 1                     1.88007  -1.66787  -0.61185 
 6                     3.08034  -0.13145   0.30742 
 1                     3.12047  -0.61431   1.29398 
 6                     4.31064  -0.59099  -0.48791 
 1                     4.31678  -0.14434  -1.48839 
 1                     5.23878  -0.29712   0.0113 
 1                     4.3251   -1.67831  -0.60927 
 6                    -2.50965   0.54486   0.83292 
 1                    -3.43268   0.53048   1.41751 
 1                    -1.74913   1.12829   1.35099 
 6                     3.11823   1.38842   0.52354 
 1                     4.04969   1.68942   1.01217 
 1                     3.05973   1.91767  -0.43412 
 1                     2.29233   1.73843   1.1474 
 8                    -2.87034   1.29134  -0.37199 
 8                    -1.87685   2.03035  -0.82733 
 
 The following ModRedundant input section has been read:

 GradGradGradGradGradGradGradGradGradGradGradGradGradGradGradGradGradGrad
 Berny optimization.
 Initialization pass.
                           ----------------------------
                           !    Initial Parameters    !
                           ! (Angstroms and Degrees)  !
 --------------------------                            --------------------------
 ! Name  Definition              Value          Derivative Info.                !
 --------------------------------------------------------------------------------
 ! R1    R(1,2)                  1.0928         calculate D2E/DX2 analytically  !
 ! R2    R(1,3)                  1.093          calculate D2E/DX2 analytically  !
 ! R3    R(1,4)                  1.0941         calculate D2E/DX2 analytically  !
 ! R4    R(1,5)                  1.5364         calculate D2E/DX2 analytically  !
 ! R5    R(5,6)                  1.0998         calculate D2E/DX2 analytically  !
 ! R6    R(5,7)                  1.5406         calculate D2E/DX2 analytically  !
 ! R7    R(5,22)                 1.5319         calculate D2E/DX2 analytically  !
 ! R8    R(7,8)                  1.0966         calculate D2E/DX2 analytically  !
 ! R9    R(7,9)                  1.0962         calculate D2E/DX2 analytically  !
 ! R10   R(7,10)                 1.5342         calculate D2E/DX2 analytically  !
 ! R11   R(10,11)                1.0988         calculate D2E/DX2 analytically  !
 ! R12   R(10,12)                1.0933         calculate D2E/DX2 analytically  !
 ! R13   R(10,13)                1.5343         calculate D2E/DX2 analytically  !
 ! R14   R(13,14)                1.0985         calculate D2E/DX2 analytically  !
 ! R15   R(13,15)                1.0975         calculate D2E/DX2 analytically  !
 ! R16   R(13,16)                1.5406         calculate D2E/DX2 analytically  !
 ! R17   R(16,17)                1.0991         calculate D2E/DX2 analytically  !
 ! R18   R(16,18)                1.5354         calculate D2E/DX2 analytically  !
 ! R19   R(16,25)                1.5356         calculate D2E/DX2 analytically  !
 ! R20   R(18,19)                1.0957         calculate D2E/DX2 analytically  !
 ! R21   R(18,20)                1.0941         calculate D2E/DX2 analytically  !
 ! R22   R(18,21)                1.0942         calculate D2E/DX2 analytically  !
 ! R23   R(22,23)                1.0927         calculate D2E/DX2 analytically  !
 ! R24   R(22,24)                1.0896         calculate D2E/DX2 analytically  !
 ! R25   R(22,29)                1.4626         calculate D2E/DX2 analytically  !
 ! R26   R(25,26)                1.0941         calculate D2E/DX2 analytically  !
 ! R27   R(25,27)                1.0957         calculate D2E/DX2 analytically  !
 ! R28   R(25,28)                1.0926         calculate D2E/DX2 analytically  !
 ! R29   R(29,30)                1.3193         calculate D2E/DX2 analytically  !
 ! A1    A(2,1,3)              107.889          calculate D2E/DX2 analytically  !
 ! A2    A(2,1,4)              107.8235         calculate D2E/DX2 analytically  !
 ! A3    A(2,1,5)              110.5706         calculate D2E/DX2 analytically  !
 ! A4    A(3,1,4)              107.8292         calculate D2E/DX2 analytically  !
 ! A5    A(3,1,5)              111.0956         calculate D2E/DX2 analytically  !
 ! A6    A(4,1,5)              111.4829         calculate D2E/DX2 analytically  !
 ! A7    A(1,5,6)              108.047          calculate D2E/DX2 analytically  !
 ! A8    A(1,5,7)              111.447          calculate D2E/DX2 analytically  !
 ! A9    A(1,5,22)             111.0565         calculate D2E/DX2 analytically  !
 ! A10   A(6,5,7)              107.7947         calculate D2E/DX2 analytically  !
 ! A11   A(6,5,22)             104.3275         calculate D2E/DX2 analytically  !
 ! A12   A(7,5,22)             113.7158         calculate D2E/DX2 analytically  !
 ! A13   A(5,7,8)              107.3842         calculate D2E/DX2 analytically  !
 ! A14   A(5,7,9)              109.3173         calculate D2E/DX2 analytically  !
 ! A15   A(5,7,10)             115.5165         calculate D2E/DX2 analytically  !
 ! A16   A(8,7,9)              105.9079         calculate D2E/DX2 analytically  !
 ! A17   A(8,7,10)             108.7583         calculate D2E/DX2 analytically  !
 ! A18   A(9,7,10)             109.5077         calculate D2E/DX2 analytically  !
 ! A19   A(7,10,11)            109.3402         calculate D2E/DX2 analytically  !
 ! A20   A(7,10,12)            109.5788         calculate D2E/DX2 analytically  !
 ! A21   A(7,10,13)            112.418          calculate D2E/DX2 analytically  !
 ! A22   A(11,10,12)           106.7351         calculate D2E/DX2 analytically  !
 ! A23   A(11,10,13)           109.0585         calculate D2E/DX2 analytically  !
 ! A24   A(12,10,13)           109.5459         calculate D2E/DX2 analytically  !
 ! A25   A(10,13,14)           109.2351         calculate D2E/DX2 analytically  !
 ! A26   A(10,13,15)           108.5757         calculate D2E/DX2 analytically  !
 ! A27   A(10,13,16)           115.322          calculate D2E/DX2 analytically  !
 ! A28   A(14,13,15)           106.035          calculate D2E/DX2 analytically  !
 ! A29   A(14,13,16)           108.8586         calculate D2E/DX2 analytically  !
 ! A30   A(15,13,16)           108.4131         calculate D2E/DX2 analytically  !
 ! A31   A(13,16,17)           107.5475         calculate D2E/DX2 analytically  !
 ! A32   A(13,16,18)           110.4572         calculate D2E/DX2 analytically  !
 ! A33   A(13,16,25)           112.568          calculate D2E/DX2 analytically  !
 ! A34   A(17,16,18)           107.7108         calculate D2E/DX2 analytically  !
 ! A35   A(17,16,25)           107.9135         calculate D2E/DX2 analytically  !
 ! A36   A(18,16,25)           110.4481         calculate D2E/DX2 analytically  !
 ! A37   A(16,18,19)           110.8232         calculate D2E/DX2 analytically  !
 ! A38   A(16,18,20)           111.2857         calculate D2E/DX2 analytically  !
 ! A39   A(16,18,21)           111.4368         calculate D2E/DX2 analytically  !
 ! A40   A(19,18,20)           107.6012         calculate D2E/DX2 analytically  !
 ! A41   A(19,18,21)           107.6829         calculate D2E/DX2 analytically  !
 ! A42   A(20,18,21)           107.8372         calculate D2E/DX2 analytically  !
 ! A43   A(5,22,23)            110.7561         calculate D2E/DX2 analytically  !
 ! A44   A(5,22,24)            113.1446         calculate D2E/DX2 analytically  !
 ! A45   A(5,22,29)            111.7315         calculate D2E/DX2 analytically  !
 ! A46   A(23,22,24)           110.0172         calculate D2E/DX2 analytically  !
 ! A47   A(23,22,29)           103.8362         calculate D2E/DX2 analytically  !
 ! A48   A(24,22,29)           106.8911         calculate D2E/DX2 analytically  !
 ! A49   A(16,25,26)           110.8643         calculate D2E/DX2 analytically  !
 ! A50   A(16,25,27)           110.7158         calculate D2E/DX2 analytically  !
 ! A51   A(16,25,28)           112.2569         calculate D2E/DX2 analytically  !
 ! A52   A(26,25,27)           107.6319         calculate D2E/DX2 analytically  !
 ! A53   A(26,25,28)           107.4823         calculate D2E/DX2 analytically  !
 ! A54   A(27,25,28)           107.6948         calculate D2E/DX2 analytically  !
 ! A55   A(22,29,30)           112.614          calculate D2E/DX2 analytically  !
 ! D1    D(2,1,5,6)            -60.5151         calculate D2E/DX2 analytically  !
 ! D2    D(2,1,5,7)             57.7356         calculate D2E/DX2 analytically  !
 ! D3    D(2,1,5,22)          -174.3645         calculate D2E/DX2 analytically  !
 ! D4    D(3,1,5,6)            179.7201         calculate D2E/DX2 analytically  !
 ! D5    D(3,1,5,7)            -62.0293         calculate D2E/DX2 analytically  !
 ! D6    D(3,1,5,22)            65.8707         calculate D2E/DX2 analytically  !
 ! D7    D(4,1,5,6)             59.4215         calculate D2E/DX2 analytically  !
 ! D8    D(4,1,5,7)            177.6722         calculate D2E/DX2 analytically  !
 ! D9    D(4,1,5,22)           -54.4279         calculate D2E/DX2 analytically  !
 ! D10   D(1,5,7,8)            -48.9358         calculate D2E/DX2 analytically  !
 ! D11   D(1,5,7,9)             65.5262         calculate D2E/DX2 analytically  !
 ! D12   D(1,5,7,10)          -170.4581         calculate D2E/DX2 analytically  !
 ! D13   D(6,5,7,8)             69.4663         calculate D2E/DX2 analytically  !
 ! D14   D(6,5,7,9)           -176.0717         calculate D2E/DX2 analytically  !
 ! D15   D(6,5,7,10)           -52.056          calculate D2E/DX2 analytically  !
 ! D16   D(22,5,7,8)          -175.3913         calculate D2E/DX2 analytically  !
 ! D17   D(22,5,7,9)           -60.9293         calculate D2E/DX2 analytically  !
 ! D18   D(22,5,7,10)           63.0864         calculate D2E/DX2 analytically  !
 ! D19   D(1,5,22,23)           54.4954         calculate D2E/DX2 analytically  !
 ! D20   D(1,5,22,24)          178.5582         calculate D2E/DX2 analytically  !
 ! D21   D(1,5,22,29)          -60.7421         calculate D2E/DX2 analytically  !
 ! D22   D(6,5,22,23)          -61.6692         calculate D2E/DX2 analytically  !
 ! D23   D(6,5,22,24)           62.3937         calculate D2E/DX2 analytically  !
 ! D24   D(6,5,22,29)         -176.9066         calculate D2E/DX2 analytically  !
 ! D25   D(7,5,22,23)         -178.8443         calculate D2E/DX2 analytically  !
 ! D26   D(7,5,22,24)          -54.7814         calculate D2E/DX2 analytically  !
 ! D27   D(7,5,22,29)           65.9183         calculate D2E/DX2 analytically  !
 ! D28   D(5,7,10,11)           53.1327         calculate D2E/DX2 analytically  !
 ! D29   D(5,7,10,12)          -63.5294         calculate D2E/DX2 analytically  !
 ! D30   D(5,7,10,13)          174.4077         calculate D2E/DX2 analytically  !
 ! D31   D(8,7,10,11)          -67.6478         calculate D2E/DX2 analytically  !
 ! D32   D(8,7,10,12)          175.69           calculate D2E/DX2 analytically  !
 ! D33   D(8,7,10,13)           53.6272         calculate D2E/DX2 analytically  !
 ! D34   D(9,7,10,11)          177.0488         calculate D2E/DX2 analytically  !
 ! D35   D(9,7,10,12)           60.3867         calculate D2E/DX2 analytically  !
 ! D36   D(9,7,10,13)          -61.6762         calculate D2E/DX2 analytically  !
 ! D37   D(7,10,13,14)          60.3611         calculate D2E/DX2 analytically  !
 ! D38   D(7,10,13,15)         -54.8463         calculate D2E/DX2 analytically  !
 ! D39   D(7,10,13,16)        -176.6939         calculate D2E/DX2 analytically  !
 ! D40   D(11,10,13,14)       -178.2029         calculate D2E/DX2 analytically  !
 ! D41   D(11,10,13,15)         66.5897         calculate D2E/DX2 analytically  !
 ! D42   D(11,10,13,16)        -55.2579         calculate D2E/DX2 analytically  !
 ! D43   D(12,10,13,14)        -61.7204         calculate D2E/DX2 analytically  !
 ! D44   D(12,10,13,15)       -176.9278         calculate D2E/DX2 analytically  !
 ! D45   D(12,10,13,16)         61.2246         calculate D2E/DX2 analytically  !
 ! D46   D(10,13,16,17)         54.1274         calculate D2E/DX2 analytically  !
 ! D47   D(10,13,16,18)        171.4173         calculate D2E/DX2 analytically  !
 ! D48   D(10,13,16,25)        -64.6078         calculate D2E/DX2 analytically  !
 ! D49   D(14,13,16,17)        177.2722         calculate D2E/DX2 analytically  !
 ! D50   D(14,13,16,18)        -65.4379         calculate D2E/DX2 analytically  !
 ! D51   D(14,13,16,25)         58.537          calculate D2E/DX2 analytically  !
 ! D52   D(15,13,16,17)        -67.8076         calculate D2E/DX2 analytically  !
 ! D53   D(15,13,16,18)         49.4823         calculate D2E/DX2 analytically  !
 ! D54   D(15,13,16,25)        173.4572         calculate D2E/DX2 analytically  !
 ! D55   D(13,16,18,19)         62.3109         calculate D2E/DX2 analytically  !
 ! D56   D(13,16,18,20)       -177.9942         calculate D2E/DX2 analytically  !
 ! D57   D(13,16,18,21)        -57.5871         calculate D2E/DX2 analytically  !
 ! D58   D(17,16,18,19)        179.5            calculate D2E/DX2 analytically  !
 ! D59   D(17,16,18,20)        -60.8051         calculate D2E/DX2 analytically  !
 ! D60   D(17,16,18,21)         59.602          calculate D2E/DX2 analytically  !
 ! D61   D(25,16,18,19)        -62.876          calculate D2E/DX2 analytically  !
 ! D62   D(25,16,18,20)         56.8189         calculate D2E/DX2 analytically  !
 ! D63   D(25,16,18,21)        177.2261         calculate D2E/DX2 analytically  !
 ! D64   D(13,16,25,26)       -179.715          calculate D2E/DX2 analytically  !
 ! D65   D(13,16,25,27)        -60.3279         calculate D2E/DX2 analytically  !
 ! D66   D(13,16,25,28)         60.0625         calculate D2E/DX2 analytically  !
 ! D67   D(17,16,25,26)         61.7643         calculate D2E/DX2 analytically  !
 ! D68   D(17,16,25,27)       -178.8486         calculate D2E/DX2 analytically  !
 ! D69   D(17,16,25,28)        -58.4582         calculate D2E/DX2 analytically  !
 ! D70   D(18,16,25,26)        -55.735          calculate D2E/DX2 analytically  !
 ! D71   D(18,16,25,27)         63.6521         calculate D2E/DX2 analytically  !
 ! D72   D(18,16,25,28)       -175.9575         calculate D2E/DX2 analytically  !
 ! D73   D(5,22,29,30)         -95.3673         calculate D2E/DX2 analytically  !
 ! D74   D(23,22,29,30)        145.2215         calculate D2E/DX2 analytically  !
 ! D75   D(24,22,29,30)         28.9123         calculate D2E/DX2 analytically  !
 --------------------------------------------------------------------------------
 Trust Radius=3.00D-01 FncErr=1.00D-07 GrdErr=1.00D-06
 Number of steps in this run=    169 maximum allowed number of steps=    180.
 GradGradGradGradGradGradGradGradGradGradGradGradGradGradGradGradGradGrad

                          Input orientation:                          
 ---------------------------------------------------------------------
 Center     Atomic      Atomic             Coordinates (Angstroms)
 Number     Number       Type             X           Y           Z
 ---------------------------------------------------------------------
      1          6           0       -3.173014   -1.669538   -0.193965
      2          1           0       -2.876169   -2.711612   -0.336378
      3          1           0       -3.399449   -1.247661   -1.176513
      4          1           0       -4.095257   -1.661481    0.394692
      5          6           0       -2.054134   -0.879861    0.502380
      6          1           0       -1.871088   -1.341605    1.483598
      7          6           0       -0.739611   -0.939929   -0.298821
      8          1           0       -0.555894   -1.991835   -0.548576
      9          1           0       -0.874402   -0.422986   -1.255980
     10          6           0        0.496519   -0.379528    0.416475
     11          1           0        0.598724   -0.862021    1.398330
     12          1           0        0.358666    0.688807    0.603514
     13          6           0        1.785988   -0.598005   -0.385763
     14          1           0        1.699407   -0.089406   -1.355555
     15          1           0        1.880069   -1.667866   -0.611848
     16          6           0        3.080336   -0.131454    0.307420
     17          1           0        3.120467   -0.614312    1.293978
     18          6           0        4.310638   -0.590989   -0.487909
     19          1           0        4.316782   -0.144337   -1.488392
     20          1           0        5.238775   -0.297116    0.011302
     21          1           0        4.325105   -1.678305   -0.609266
     22          6           0       -2.509649    0.544864    0.832923
     23          1           0       -3.432676    0.530476    1.417505
     24          1           0       -1.749127    1.128289    1.350988
     25          6           0        3.118227    1.388421    0.523541
     26          1           0        4.049695    1.689416    1.012167
     27          1           0        3.059733    1.917672   -0.434118
     28          1           0        2.292328    1.738431    1.147402
     29          8           0       -2.870339    1.291342   -0.371991
     30          8           0       -1.876847    2.030354   -0.827326
 ---------------------------------------------------------------------
                    Distance matrix (angstroms):
                    1          2          3          4          5
     1  C    0.000000
     2  H    1.092848   0.000000
     3  H    1.093002   1.767145   0.000000
     4  H    1.094127   1.767318   1.767507   0.000000
     5  C    1.536352   2.175906   2.182620   2.188312   0.000000
     6  H    2.148667   2.489863   3.069349   2.496991   1.099774
     7  C    2.542592   2.775815   2.817762   3.501708   1.540617
     8  H    2.660628   2.438603   3.005645   3.677768   2.141429
     9  H    2.822301   3.176562   2.657492   3.825244   2.166179
    10  C    3.937288   4.168984   4.297654   4.767419   2.600681
    11  H    4.172948   4.301753   4.771155   4.866198   2.800125
    12  H    4.320941   4.786481   4.587138   5.040326   2.879679
    13  C    5.077073   5.119129   5.285461   6.027365   3.951554
    14  H    5.252294   5.371274   5.231820   6.254032   4.262137
    15  H    5.070333   4.877201   5.326230   6.059512   4.164182
    16  C    6.459216   6.523162   6.740593   7.337420   5.192389
    17  H    6.552509   6.558687   7.000983   7.346560   5.241530
    18  C    7.566685   7.494678   7.768580   8.519625   6.447825
    19  H    7.752343   7.723767   7.800950   8.752721   6.715113
    20  H    8.525484   8.473664   8.771166   9.441008   7.332617
    21  H    7.509617   7.280147   7.757316   8.480018   6.524413
    22  C    2.529452   3.479402   2.835969   2.752119   1.531860
    23  H    2.739402   3.727860   3.145124   2.507954   2.174139
    24  H    3.498881   4.343071   3.841479   3.768507   2.201325
    25  C    7.031759   7.313174   7.233202   7.832806   5.647908
    26  H    8.056355   8.315961   8.300993   8.828931   6.642123
    27  H    7.195338   7.528264   7.231287   8.043081   5.903800
    28  H    6.579018   6.979817   6.834739   7.275109   5.115001
    29  O    2.981630   4.003117   2.715465   3.287460   2.478878
    30  O    3.971196   4.870926   3.631202   4.477088   3.204512
                    6          7          8          9         10
     6  H    0.000000
     7  C    2.149093   0.000000
     8  H    2.506445   1.096647   0.000000
     9  H    3.056555   1.096153   1.750187   0.000000
    10  C    2.769460   1.534182   2.153702   2.162965   0.000000
    11  H    2.517388   2.162760   2.529835   3.067281   1.098765
    12  H    3.141484   2.161759   3.057707   2.492841   1.093310
    13  C    4.173926   2.550122   2.730143   2.804565   1.534291
    14  H    4.730457   2.790857   3.058894   2.597245   2.161296
    15  H    4.309120   2.736896   2.458226   3.090589   2.152086
    16  C    5.231105   3.951349   4.173238   4.262530   2.597988
    17  H    5.047824   4.188465   4.336843   4.743192   2.776732
    18  C    6.531769   5.065820   5.064502   5.244311   3.925574
    19  H    6.968207   5.255012   5.295231   5.203850   4.275306
    20  H    7.335446   6.020837   6.063310   6.244420   4.760247
    21  H    6.548760   5.127663   4.891435   5.387851   4.170976
    22  C    2.095210   2.572642   3.487197   2.823877   3.172535
    23  H    2.438773   3.515745   4.301558   3.821175   4.155568
    24  H    2.476456   2.831699   3.842827   3.157195   2.861774
    25  C    5.767843   4.580437   5.106342   4.731699   3.163931
    26  H    6.668209   5.618683   6.099096   5.818373   4.154568
    27  H    6.213978   4.755965   5.326359   4.650974   3.545519
    28  H    5.189767   4.296257   4.990350   4.525058   2.871399
    29  O    3.372554   3.086086   4.020832   2.775630   3.840471
    30  O    4.087849   3.224159   4.242714   2.684682   3.603809
                   11         12         13         14         15
    11  H    0.000000
    12  H    1.759099   0.000000
    13  C    2.159233   2.161435   0.000000
    14  H    3.064689   2.498230   1.098483   0.000000
    15  H    2.516356   3.057070   1.097528   1.754216   0.000000
    16  C    2.807528   2.857969   1.540620   2.161994   2.155518
    17  H    2.536028   3.130879   2.145374   3.052042   2.506140
    18  C    4.172489   4.295016   2.526725   2.796949   2.661332
    19  H    4.761532   4.553777   2.797592   2.621319   3.004503
    20  H    4.875760   5.013803   3.488543   3.799811   3.680785
    21  H    4.310763   4.775635   2.768414   3.158455   2.445060
    22  C    3.458467   2.881073   4.609104   4.786218   5.123784
    23  H    4.265161   3.880969   5.635574   5.866208   6.097232
    24  H    3.078308   2.279178   4.300399   4.549785   4.984202
    25  C    3.489648   2.847987   2.558824   2.779932   3.487554
    26  H    4.309078   3.846025   3.508685   3.780763   4.314631
    27  H    4.140184   3.143653   2.820176   2.593819   3.778793
    28  H    3.113456   2.266401   2.840054   3.155525   3.855876
    29  O    4.450327   3.426533   5.025058   4.874058   5.601859
    30  O    4.409969   2.973982   4.529858   4.190704   5.276143
                   16         17         18         19         20
    16  C    0.000000
    17  H    1.099117   0.000000
    18  C    1.535371   2.142935   0.000000
    19  H    2.180345   3.064903   1.095674   0.000000
    20  H    2.184946   2.496618   1.094080   1.767058   0.000000
    21  H    2.186895   2.491098   1.094163   1.768047   1.768497
    22  C    5.655218   5.766669   7.039252   7.243180   7.837223
    23  H    6.640012   6.653532   8.052776   8.303837   8.823626
    24  H    5.098990   5.172316   6.561876   6.817397   7.256536
    25  C    1.535631   2.145814   2.522487   2.798885   2.756837
    26  H    2.179884   2.500009   2.742000   3.112359   2.522291
    27  H    2.179271   3.066096   2.803754   2.635061   3.138775
    28  H    2.196132   2.498539   3.489128   3.819770   3.757090
    29  O    6.156012   6.503593   7.424489   7.413652   8.272112
    30  O    5.525824   6.038819   6.728418   6.597524   7.533425
                   21         22         23         24         25
    21  H    0.000000
    22  C    7.330501   0.000000
    23  H    8.316831   1.092667   0.000000
    24  H    6.972507   1.089573   1.787776   0.000000
    25  C    3.484912   5.699149   6.667051   4.944034   0.000000
    26  H    3.747858   6.660865   7.582435   5.835752   1.094069
    27  H    3.816136   5.874352   6.892329   5.189881   1.095737
    28  H    4.346510   4.958072   5.857284   4.092320   1.092620
    29  O    7.787780   1.462581   2.024212   2.062125   6.055933
    30  O    7.229517   2.315933   3.116008   2.361162   5.214181
                   26         27         28         29         30
    26  H    0.000000
    27  H    1.767446   0.000000
    28  H    1.763244   1.766987   0.000000
    29  O    7.068326   5.963380   5.400146   0.000000
    30  O    6.214811   4.953497   4.622423   1.319278   0.000000
 Stoichiometry    C9H19O2(2)
 Framework group  C1[X(C9H19O2)]
 Deg. of freedom    84
 Full point group                 C1      NOp   1
 Largest Abelian subgroup         C1      NOp   1
 Largest concise Abelian subgroup C1      NOp   1
                         Standard orientation:                         
 ---------------------------------------------------------------------
 Center     Atomic      Atomic             Coordinates (Angstroms)
 Number     Number       Type             X           Y           Z
 ---------------------------------------------------------------------
      1          6           0       -3.173014   -1.669538   -0.193965
      2          1           0       -2.876169   -2.711612   -0.336378
      3          1           0       -3.399449   -1.247661   -1.176513
      4          1           0       -4.095257   -1.661481    0.394692
      5          6           0       -2.054134   -0.879861    0.502380
      6          1           0       -1.871088   -1.341605    1.483598
      7          6           0       -0.739611   -0.939929   -0.298821
      8          1           0       -0.555894   -1.991835   -0.548576
      9          1           0       -0.874402   -0.422986   -1.255980
     10          6           0        0.496519   -0.379528    0.416475
     11          1           0        0.598724   -0.862021    1.398330
     12          1           0        0.358666    0.688807    0.603514
     13          6           0        1.785988   -0.598005   -0.385763
     14          1           0        1.699407   -0.089406   -1.355555
     15          1           0        1.880069   -1.667866   -0.611848
     16          6           0        3.080336   -0.131454    0.307420
     17          1           0        3.120467   -0.614312    1.293978
     18          6           0        4.310638   -0.590989   -0.487909
     19          1           0        4.316782   -0.144337   -1.488392
     20          1           0        5.238775   -0.297116    0.011302
     21          1           0        4.325105   -1.678305   -0.609266
     22          6           0       -2.509649    0.544864    0.832923
     23          1           0       -3.432676    0.530476    1.417505
     24          1           0       -1.749127    1.128289    1.350988
     25          6           0        3.118227    1.388421    0.523541
     26          1           0        4.049695    1.689416    1.012167
     27          1           0        3.059733    1.917672   -0.434118
     28          1           0        2.292328    1.738431    1.147402
     29          8           0       -2.870339    1.291342   -0.371991
     30          8           0       -1.876847    2.030354   -0.827326
 ---------------------------------------------------------------------
 Rotational constants (GHZ):      1.8259530      0.4342801      0.3814806
 Standard basis: 6-311G(2d,d,p) (5D, 7F)
 There are   312 symmetry adapted basis functions of A   symmetry.
 Integral buffers will be    131072 words long.
 Raffenetti 2 integral format.
 Two-electron integral symmetry is turned on.
   312 basis functions,   504 primitive gaussians,   323 cartesian basis functions
    45 alpha electrons       44 beta electrons
       nuclear repulsion energy       649.1973704825 Hartrees.
 NAtoms=   30 NActive=   30 NUniq=   30 SFac= 1.00D+00 NAtFMM=   60 NAOKFM=F Big=F
 One-electron integrals computed using PRISM.
 NBasis=   312 RedAO= T  NBF=   312
 NBsUse=   312 1.00D-06 NBFU=   312
 Harris functional with IExCor=  402 diagonalized for initial guess.
 ExpMin= 1.03D-01 ExpMax= 8.59D+03 ExpMxC= 1.30D+03 IAcc=1 IRadAn=         1 AccDes= 0.00D+00
 HarFok:  IExCor=  402 AccDes= 0.00D+00 IRadAn=         1 IDoV= 1
 ScaDFX=  1.000000  1.000000  1.000000  1.000000
 FoFCou: FMM=F IPFlag=           0 FMFlag=      100000 FMFlg1=           0
         NFxFlg=           0 DoJE=T BraDBF=F KetDBF=T FulRan=T
         Omega=  0.000000  0.000000  1.000000  0.000000  0.000000 ICntrl=     500 IOpCl=  0
         NMat0=    1 NMatS0=    1 NMatT0=    0 NMatD0=    1 NMtDS0=    0 NMtDT0=    0
         I1Cent=           4 NGrid=           0.
 Petite list used in FoFCou.
 Initial guess orbital symmetries:
 Alpha Orbitals:
       Occupied  (A) (A) (A) (A) (A) (A) (A) (A) (A) (A) (A) (A)
                 (A) (A) (A) (A) (A) (A) (A) (A) (A) (A) (A) (A)
                 (A) (A) (A) (A) (A) (A) (A) (A) (A) (A) (A) (A)
                 (A) (A) (A) (A) (A) (A) (A) (A) (A)
       Virtual   (A) (A) (A) (A) (A) (A) (A) (A) (A) (A) (A) (A)
                 (A) (A) (A) (A) (A) (A) (A) (A) (A) (A) (A) (A)
                 (A) (A) (A) (A) (A) (A) (A) (A) (A) (A) (A) (A)
                 (A) (A) (A) (A) (A) (A) (A) (A) (A) (A) (A) (A)
                 (A) (A) (A) (A) (A) (A) (A) (A) (A) (A) (A) (A)
                 (A) (A) (A) (A) (A) (A) (A) (A) (A) (A) (A) (A)
                 (A) (A) (A) (A) (A) (A) (A) (A) (A) (A) (A) (A)
                 (A) (A) (A) (A) (A) (A) (A) (A) (A) (A) (A) (A)
                 (A) (A) (A) (A) (A) (A) (A) (A) (A) (A) (A) (A)
                 (A) (A) (A) (A) (A) (A) (A) (A) (A) (A) (A) (A)
                 (A) (A) (A) (A) (A) (A) (A) (A) (A) (A) (A) (A)
                 (A) (A) (A) (A) (A) (A) (A) (A) (A) (A) (A) (A)
                 (A) (A) (A) (A) (A) (A) (A) (A) (A) (A) (A) (A)
                 (A) (A) (A) (A) (A) (A) (A) (A) (A) (A) (A) (A)
                 (A) (A) (A) (A) (A) (A) (A) (A) (A) (A) (A) (A)
                 (A) (A) (A) (A) (A) (A) (A) (A) (A) (A) (A) (A)
                 (A) (A) (A) (A) (A) (A) (A) (A) (A) (A) (A) (A)
                 (A) (A) (A) (A) (A) (A) (A) (A) (A) (A) (A) (A)
                 (A) (A) (A) (A) (A) (A) (A) (A) (A) (A) (A) (A)
                 (A) (A) (A) (A) (A) (A) (A) (A) (A) (A) (A) (A)
                 (A) (A) (A) (A) (A) (A) (A) (A) (A) (A) (A) (A)
                 (A) (A) (A) (A) (A) (A) (A) (A) (A) (A) (A) (A)
                 (A) (A) (A)
 Beta  Orbitals:
       Occupied  (A) (A) (A) (A) (A) (A) (A) (A) (A) (A) (A) (A)
                 (A) (A) (A) (A) (A) (A) (A) (A) (A) (A) (A) (A)
                 (A) (A) (A) (A) (A) (A) (A) (A) (A) (A) (A) (A)
                 (A) (A) (A) (A) (A) (A) (A) (A)
       Virtual   (A) (A) (A) (A) (A) (A) (A) (A) (A) (A) (A) (A)
                 (A) (A) (A) (A) (A) (A) (A) (A) (A) (A) (A) (A)
                 (A) (A) (A) (A) (A) (A) (A) (A) (A) (A) (A) (A)
                 (A) (A) (A) (A) (A) (A) (A) (A) (A) (A) (A) (A)
                 (A) (A) (A) (A) (A) (A) (A) (A) (A) (A) (A) (A)
                 (A) (A) (A) (A) (A) (A) (A) (A) (A) (A) (A) (A)
                 (A) (A) (A) (A) (A) (A) (A) (A) (A) (A) (A) (A)
                 (A) (A) (A) (A) (A) (A) (A) (A) (A) (A) (A) (A)
                 (A) (A) (A) (A) (A) (A) (A) (A) (A) (A) (A) (A)
                 (A) (A) (A) (A) (A) (A) (A) (A) (A) (A) (A) (A)
                 (A) (A) (A) (A) (A) (A) (A) (A) (A) (A) (A) (A)
                 (A) (A) (A) (A) (A) (A) (A) (A) (A) (A) (A) (A)
                 (A) (A) (A) (A) (A) (A) (A) (A) (A) (A) (A) (A)
                 (A) (A) (A) (A) (A) (A) (A) (A) (A) (A) (A) (A)
                 (A) (A) (A) (A) (A) (A) (A) (A) (A) (A) (A) (A)
                 (A) (A) (A) (A) (A) (A) (A) (A) (A) (A) (A) (A)
                 (A) (A) (A) (A) (A) (A) (A) (A) (A) (A) (A) (A)
                 (A) (A) (A) (A) (A) (A) (A) (A) (A) (A) (A) (A)
                 (A) (A) (A) (A) (A) (A) (A) (A) (A) (A) (A) (A)
                 (A) (A) (A) (A) (A) (A) (A) (A) (A) (A) (A) (A)
                 (A) (A) (A) (A) (A) (A) (A) (A) (A) (A) (A) (A)
                 (A) (A) (A) (A) (A) (A) (A) (A) (A) (A) (A) (A)
                 (A) (A) (A) (A)
 The electronic state of the initial guess is 2-A.
 Initial guess <Sx>= 0.0000 <Sy>= 0.0000 <Sz>= 0.5000 <S**2>= 0.7500 S= 0.5000
 Requested convergence on RMS density matrix=1.00D-08 within 128 cycles.
 Requested convergence on MAX density matrix=1.00D-06.
 Requested convergence on             energy=1.00D-06.
 No special actions if energy rises.
 Keep R1 and R2 ints in memory in canonical form, NReq=2755663385.
 Integral accuracy reduced to 1.0D-05 until final iterations.
 Initial convergence to 1.0D-05 achieved.  Increase integral accuracy.
 SCF Done:  E(UB3LYP) =  -504.870410091     A.U. after   19 cycles
             Convg  =    0.2093D-08             -V/T =  2.0043
 <Sx>= 0.0000 <Sy>= 0.0000 <Sz>= 0.5000 <S**2>= 0.7535 S= 0.5018
 <L.S>= 0.000000000000E+00
 Annihilation of the first spin contaminant:
 S**2 before annihilation     0.7535,   after     0.7500
 Range of M.O.s used for correlation:     1   312
 NBasis=   312 NAE=    45 NBE=    44 NFC=     0 NFV=     0
 NROrb=    312 NOA=    45 NOB=    44 NVA=   267 NVB=   268
 Symmetrizing basis deriv contribution to polar:
 IMax=3 JMax=2 DiffMx= 0.00D+00
 G2DrvN: will do    31 centers at a time, making    1 passes doing MaxLOS=2.
 Calling FoFCou, ICntrl=  3107 FMM=F I1Cent=   0 AccDes= 0.00D+00.
 FoFDir/FoFCou used for L=0 through L=2.
 End of G2Drv Frequency-dependent properties file   721 does not exist.
 End of G2Drv Frequency-dependent properties file   722 does not exist.
          IDoAtm=111111111111111111111111111111
          Differentiating once with respect to nuclear coordinates.
          Keep R1 and R2 ints in memory in canonical form, NReq=2738891885.
          There are    93 degrees of freedom in the 1st order CPHF.  IDoFFX=5.
     87 vectors produced by pass  0 Test12= 2.56D-10 1.08D-07 XBig12= 2.51D-01 1.30D-01.
 AX will form    87 AO Fock derivatives at one time.
     87 vectors produced by pass  1 Test12= 2.56D-10 1.08D-07 XBig12= 1.44D-02 1.71D-02.
     87 vectors produced by pass  2 Test12= 2.56D-10 1.08D-07 XBig12= 5.29D-05 1.25D-03.
     87 vectors produced by pass  3 Test12= 2.56D-10 1.08D-07 XBig12= 2.34D-07 5.83D-05.
     57 vectors produced by pass  4 Test12= 2.56D-10 1.08D-07 XBig12= 9.22D-10 3.76D-06.
      6 vectors produced by pass  5 Test12= 2.56D-10 1.08D-07 XBig12= 4.08D-12 1.54D-07.
 Inverted reduced A of dimension   411 with in-core refinement.
 End of Minotr Frequency-dependent properties file   721 does not exist.
 End of Minotr Frequency-dependent properties file   722 does not exist.

 **********************************************************************

            Population analysis using the SCF density.

 **********************************************************************

 Orbital symmetries:
 Alpha Orbitals:
       Occupied  (A) (A) (A) (A) (A) (A) (A) (A) (A) (A) (A) (A)
                 (A) (A) (A) (A) (A) (A) (A) (A) (A) (A) (A) (A)
                 (A) (A) (A) (A) (A) (A) (A) (A) (A) (A) (A) (A)
                 (A) (A) (A) (A) (A) (A) (A) (A) (A)
       Virtual   (A) (A) (A) (A) (A) (A) (A) (A) (A) (A) (A) (A)
                 (A) (A) (A) (A) (A) (A) (A) (A) (A) (A) (A) (A)
                 (A) (A) (A) (A) (A) (A) (A) (A) (A) (A) (A) (A)
                 (A) (A) (A) (A) (A) (A) (A) (A) (A) (A) (A) (A)
                 (A) (A) (A) (A) (A) (A) (A) (A) (A) (A) (A) (A)
                 (A) (A) (A) (A) (A) (A) (A) (A) (A) (A) (A) (A)
                 (A) (A) (A) (A) (A) (A) (A) (A) (A) (A) (A) (A)
                 (A) (A) (A) (A) (A) (A) (A) (A) (A) (A) (A) (A)
                 (A) (A) (A) (A) (A) (A) (A) (A) (A) (A) (A) (A)
                 (A) (A) (A) (A) (A) (A) (A) (A) (A) (A) (A) (A)
                 (A) (A) (A) (A) (A) (A) (A) (A) (A) (A) (A) (A)
                 (A) (A) (A) (A) (A) (A) (A) (A) (A) (A) (A) (A)
                 (A) (A) (A) (A) (A) (A) (A) (A) (A) (A) (A) (A)
                 (A) (A) (A) (A) (A) (A) (A) (A) (A) (A) (A) (A)
                 (A) (A) (A) (A) (A) (A) (A) (A) (A) (A) (A) (A)
                 (A) (A) (A) (A) (A) (A) (A) (A) (A) (A) (A) (A)
                 (A) (A) (A) (A) (A) (A) (A) (A) (A) (A) (A) (A)
                 (A) (A) (A) (A) (A) (A) (A) (A) (A) (A) (A) (A)
                 (A) (A) (A) (A) (A) (A) (A) (A) (A) (A) (A) (A)
                 (A) (A) (A) (A) (A) (A) (A) (A) (A) (A) (A) (A)
                 (A) (A) (A) (A) (A) (A) (A) (A) (A) (A) (A) (A)
                 (A) (A) (A) (A) (A) (A) (A) (A) (A) (A) (A) (A)
                 (A) (A) (A)
 Beta  Orbitals:
       Occupied  (A) (A) (A) (A) (A) (A) (A) (A) (A) (A) (A) (A)
                 (A) (A) (A) (A) (A) (A) (A) (A) (A) (A) (A) (A)
                 (A) (A) (A) (A) (A) (A) (A) (A) (A) (A) (A) (A)
                 (A) (A) (A) (A) (A) (A) (A) (A)
       Virtual   (A) (A) (A) (A) (A) (A) (A) (A) (A) (A) (A) (A)
                 (A) (A) (A) (A) (A) (A) (A) (A) (A) (A) (A) (A)
                 (A) (A) (A) (A) (A) (A) (A) (A) (A) (A) (A) (A)
                 (A) (A) (A) (A) (A) (A) (A) (A) (A) (A) (A) (A)
                 (A) (A) (A) (A) (A) (A) (A) (A) (A) (A) (A) (A)
                 (A) (A) (A) (A) (A) (A) (A) (A) (A) (A) (A) (A)
                 (A) (A) (A) (A) (A) (A) (A) (A) (A) (A) (A) (A)
                 (A) (A) (A) (A) (A) (A) (A) (A) (A) (A) (A) (A)
                 (A) (A) (A) (A) (A) (A) (A) (A) (A) (A) (A) (A)
                 (A) (A) (A) (A) (A) (A) (A) (A) (A) (A) (A) (A)
                 (A) (A) (A) (A) (A) (A) (A) (A) (A) (A) (A) (A)
                 (A) (A) (A) (A) (A) (A) (A) (A) (A) (A) (A) (A)
                 (A) (A) (A) (A) (A) (A) (A) (A) (A) (A) (A) (A)
                 (A) (A) (A) (A) (A) (A) (A) (A) (A) (A) (A) (A)
                 (A) (A) (A) (A) (A) (A) (A) (A) (A) (A) (A) (A)
                 (A) (A) (A) (A) (A) (A) (A) (A) (A) (A) (A) (A)
                 (A) (A) (A) (A) (A) (A) (A) (A) (A) (A) (A) (A)
                 (A) (A) (A) (A) (A) (A) (A) (A) (A) (A) (A) (A)
                 (A) (A) (A) (A) (A) (A) (A) (A) (A) (A) (A) (A)
                 (A) (A) (A) (A) (A) (A) (A) (A) (A) (A) (A) (A)
                 (A) (A) (A) (A) (A) (A) (A) (A) (A) (A) (A) (A)
                 (A) (A) (A) (A) (A) (A) (A) (A) (A) (A) (A) (A)
                 (A) (A) (A) (A)
 The electronic state is 2-A.
 Alpha  occ. eigenvalues --  -19.23424 -19.18309 -10.23494 -10.19279 -10.17249
 Alpha  occ. eigenvalues --  -10.16963 -10.16744 -10.16530 -10.16242 -10.15527
 Alpha  occ. eigenvalues --  -10.15435  -1.19030  -0.88602  -0.82226  -0.80240
 Alpha  occ. eigenvalues --   -0.75108  -0.68974  -0.68274  -0.67693  -0.60986
 Alpha  occ. eigenvalues --   -0.57711  -0.55847  -0.52614  -0.51076  -0.49316
 Alpha  occ. eigenvalues --   -0.47473  -0.45265  -0.44455  -0.43627  -0.43119
 Alpha  occ. eigenvalues --   -0.42557  -0.40386  -0.38537  -0.38411  -0.37276
 Alpha  occ. eigenvalues --   -0.36891  -0.35803  -0.35534  -0.34398  -0.33549
 Alpha  occ. eigenvalues --   -0.32184  -0.32021  -0.30995  -0.27808  -0.27594
 Alpha virt. eigenvalues --    0.03270   0.04353   0.05566   0.06388   0.06646
 Alpha virt. eigenvalues --    0.07583   0.08709   0.09001   0.09866   0.10291
 Alpha virt. eigenvalues --    0.10877   0.11640   0.12507   0.12788   0.13624
 Alpha virt. eigenvalues --    0.14056   0.15069   0.15634   0.15773   0.16598
 Alpha virt. eigenvalues --    0.18458   0.19550   0.21040   0.21249   0.22582
 Alpha virt. eigenvalues --    0.23306   0.24060   0.24864   0.25643   0.28941
 Alpha virt. eigenvalues --    0.29451   0.29802   0.31898   0.33192   0.33848
 Alpha virt. eigenvalues --    0.35480   0.36932   0.39111   0.39395   0.41604
 Alpha virt. eigenvalues --    0.42448   0.44019   0.45924   0.46915   0.47512
 Alpha virt. eigenvalues --    0.49192   0.51134   0.52225   0.55257   0.56142
 Alpha virt. eigenvalues --    0.56532   0.57056   0.57292   0.57564   0.57912
 Alpha virt. eigenvalues --    0.58194   0.58666   0.59150   0.59474   0.59633
 Alpha virt. eigenvalues --    0.60340   0.60736   0.61105   0.62232   0.62841
 Alpha virt. eigenvalues --    0.63084   0.63617   0.64834   0.65374   0.65808
 Alpha virt. eigenvalues --    0.66278   0.67850   0.68709   0.71567   0.75086
 Alpha virt. eigenvalues --    0.77383   0.78666   0.81370   0.83555   0.86793
 Alpha virt. eigenvalues --    0.90273   0.91172   0.91888   0.94518   0.95851
 Alpha virt. eigenvalues --    0.97360   0.98533   1.00067   1.01350   1.04631
 Alpha virt. eigenvalues --    1.06132   1.10102   1.11137   1.13809   1.17352
 Alpha virt. eigenvalues --    1.19393   1.21086   1.22528   1.23655   1.25342
 Alpha virt. eigenvalues --    1.27873   1.30449   1.35548   1.37902   1.38241
 Alpha virt. eigenvalues --    1.40644   1.41046   1.42659   1.43995   1.45688
 Alpha virt. eigenvalues --    1.46148   1.46989   1.48068   1.49189   1.50658
 Alpha virt. eigenvalues --    1.51167   1.51869   1.52853   1.53338   1.55201
 Alpha virt. eigenvalues --    1.55326   1.55864   1.57082   1.58696   1.60195
 Alpha virt. eigenvalues --    1.60606   1.61492   1.62354   1.63729   1.64858
 Alpha virt. eigenvalues --    1.65566   1.67220   1.67950   1.70339   1.70760
 Alpha virt. eigenvalues --    1.72095   1.73650   1.73938   1.74705   1.74828
 Alpha virt. eigenvalues --    1.78023   1.78329   1.78830   1.79658   1.82287
 Alpha virt. eigenvalues --    1.83861   1.88283   1.90418   1.92785   1.93822
 Alpha virt. eigenvalues --    1.96814   1.97025   1.99932   2.01376   2.02792
 Alpha virt. eigenvalues --    2.03447   2.06154   2.07737   2.09744   2.11764
 Alpha virt. eigenvalues --    2.13016   2.14691   2.18311   2.18904   2.20308
 Alpha virt. eigenvalues --    2.23276   2.25813   2.28804   2.29018   2.31677
 Alpha virt. eigenvalues --    2.32482   2.34998   2.35901   2.37012   2.37641
 Alpha virt. eigenvalues --    2.37899   2.39961   2.42255   2.44326   2.45473
 Alpha virt. eigenvalues --    2.46658   2.47721   2.48539   2.49856   2.51016
 Alpha virt. eigenvalues --    2.51586   2.52310   2.52787   2.54181   2.55252
 Alpha virt. eigenvalues --    2.56813   2.57653   2.57783   2.58616   2.59180
 Alpha virt. eigenvalues --    2.61788   2.62215   2.64202   2.65078   2.65645
 Alpha virt. eigenvalues --    2.68031   2.69035   2.69397   2.72461   2.72824
 Alpha virt. eigenvalues --    2.75349   2.75793   2.77174   2.79161   2.81200
 Alpha virt. eigenvalues --    2.83206   2.85016   2.86829   2.87288   2.88573
 Alpha virt. eigenvalues --    2.90279   2.93227   2.93332   2.96560   2.99408
 Alpha virt. eigenvalues --    3.05159   3.07470   3.10871   3.13017   3.19609
 Alpha virt. eigenvalues --    3.28057   3.32699   3.35604   3.45101   3.47552
 Alpha virt. eigenvalues --    3.72006   3.76867   3.77834   3.78546   3.78855
 Alpha virt. eigenvalues --    3.79418   3.80781   3.82508   3.83200   3.84597
 Alpha virt. eigenvalues --    3.85525   3.86836   3.93512   3.97155   4.09288
 Alpha virt. eigenvalues --    4.19325   4.26303   4.29586   4.31421   4.39835
 Alpha virt. eigenvalues --    4.69127   4.71187   4.80357   4.89857   5.21140
 Alpha virt. eigenvalues --    5.92418  23.76945  23.81491  23.81878  23.86859
 Alpha virt. eigenvalues --   23.88680  23.89983  23.93098  23.93616  23.94634
 Alpha virt. eigenvalues --   49.69325  49.75752
  Beta  occ. eigenvalues --  -19.22417 -19.16374 -10.23527 -10.19245 -10.17249
  Beta  occ. eigenvalues --  -10.16962 -10.16743 -10.16530 -10.16242 -10.15527
  Beta  occ. eigenvalues --  -10.15435  -1.16329  -0.86171  -0.81854  -0.79693
  Beta  occ. eigenvalues --   -0.74937  -0.68551  -0.68271  -0.67318  -0.60892
  Beta  occ. eigenvalues --   -0.57339  -0.55825  -0.50701  -0.50172  -0.48453
  Beta  occ. eigenvalues --   -0.46805  -0.44555  -0.44073  -0.42855  -0.42508
  Beta  occ. eigenvalues --   -0.40779  -0.39668  -0.38414  -0.38269  -0.36999
  Beta  occ. eigenvalues --   -0.36623  -0.35515  -0.35150  -0.33696  -0.33487
  Beta  occ. eigenvalues --   -0.32181  -0.31942  -0.30968  -0.26069
  Beta virt. eigenvalues --   -0.10831   0.03334   0.04367   0.05623   0.06405
  Beta virt. eigenvalues --    0.06862   0.07825   0.08801   0.09274   0.10076
  Beta virt. eigenvalues --    0.10394   0.10942   0.11707   0.12557   0.13036
  Beta virt. eigenvalues --    0.13683   0.14365   0.15086   0.15656   0.16050
  Beta virt. eigenvalues --    0.16698   0.18483   0.19779   0.21096   0.21369
  Beta virt. eigenvalues --    0.22671   0.23438   0.24093   0.24932   0.25652
  Beta virt. eigenvalues --    0.28980   0.29504   0.29829   0.31916   0.33252
  Beta virt. eigenvalues --    0.33911   0.35509   0.36977   0.39154   0.39564
  Beta virt. eigenvalues --    0.41630   0.42588   0.44059   0.45962   0.46992
  Beta virt. eigenvalues --    0.47548   0.49284   0.51206   0.52252   0.55291
  Beta virt. eigenvalues --    0.56177   0.56591   0.57166   0.57334   0.57599
  Beta virt. eigenvalues --    0.57922   0.58202   0.58695   0.59162   0.59493
  Beta virt. eigenvalues --    0.59694   0.60371   0.60751   0.61155   0.62260
  Beta virt. eigenvalues --    0.62869   0.63158   0.63661   0.64855   0.65407
  Beta virt. eigenvalues --    0.65843   0.66325   0.68242   0.68784   0.71610
  Beta virt. eigenvalues --    0.75579   0.78055   0.80114   0.81705   0.84403
  Beta virt. eigenvalues --    0.88431   0.90737   0.91510   0.93135   0.94709
  Beta virt. eigenvalues --    0.96453   0.97569   0.98588   1.00224   1.01530
  Beta virt. eigenvalues --    1.04674   1.06676   1.10172   1.11296   1.13843
  Beta virt. eigenvalues --    1.17381   1.19450   1.21193   1.22725   1.23897
  Beta virt. eigenvalues --    1.25391   1.28139   1.31017   1.35580   1.37937
  Beta virt. eigenvalues --    1.38350   1.40694   1.41094   1.42741   1.44243
  Beta virt. eigenvalues --    1.45690   1.46215   1.47001   1.48145   1.49240
  Beta virt. eigenvalues --    1.50671   1.51201   1.51881   1.52896   1.53356
  Beta virt. eigenvalues --    1.55265   1.55574   1.55972   1.57148   1.58724
  Beta virt. eigenvalues --    1.60212   1.60633   1.61571   1.62379   1.63865
  Beta virt. eigenvalues --    1.64902   1.65592   1.67269   1.67989   1.70396
  Beta virt. eigenvalues --    1.70771   1.72127   1.73692   1.73977   1.74740
  Beta virt. eigenvalues --    1.74890   1.78049   1.78335   1.78857   1.79668
  Beta virt. eigenvalues --    1.82332   1.83883   1.88304   1.90519   1.92795
  Beta virt. eigenvalues --    1.93850   1.96895   1.97042   1.99943   2.01418
  Beta virt. eigenvalues --    2.02807   2.03460   2.06214   2.07776   2.09748
  Beta virt. eigenvalues --    2.11779   2.13048   2.14713   2.18372   2.18949
  Beta virt. eigenvalues --    2.20362   2.23344   2.25889   2.28833   2.29044
  Beta virt. eigenvalues --    2.31856   2.32634   2.35094   2.36025   2.37125
  Beta virt. eigenvalues --    2.37758   2.39863   2.40253   2.42318   2.44345
  Beta virt. eigenvalues --    2.45611   2.46693   2.47756   2.48632   2.49928
  Beta virt. eigenvalues --    2.51032   2.51656   2.52787   2.52963   2.54348
  Beta virt. eigenvalues --    2.55369   2.56877   2.57752   2.57994   2.58713
  Beta virt. eigenvalues --    2.59266   2.61928   2.62525   2.64242   2.65123
  Beta virt. eigenvalues --    2.65808   2.68367   2.69158   2.71863   2.72625
  Beta virt. eigenvalues --    2.73584   2.75731   2.77169   2.77810   2.80092
  Beta virt. eigenvalues --    2.83052   2.83685   2.86244   2.86947   2.88620
  Beta virt. eigenvalues --    2.88970   2.90935   2.93344   2.94141   2.96859
  Beta virt. eigenvalues --    2.99935   3.05631   3.07939   3.11010   3.14165
  Beta virt. eigenvalues --    3.19904   3.31702   3.33605   3.36451   3.45151
  Beta virt. eigenvalues --    3.47563   3.73373   3.76918   3.77835   3.78553
  Beta virt. eigenvalues --    3.78982   3.79442   3.80790   3.82526   3.83310
  Beta virt. eigenvalues --    3.84924   3.85578   3.87562   3.93675   3.97159
  Beta virt. eigenvalues --    4.09325   4.19363   4.26401   4.29586   4.31434
  Beta virt. eigenvalues --    4.39843   4.71527   4.76454   4.81992   4.95558
  Beta virt. eigenvalues --    5.22089   5.93821  23.76916  23.81522  23.81882
  Beta virt. eigenvalues --   23.86857  23.88680  23.89983  23.93100  23.93616
  Beta virt. eigenvalues --   23.94634  49.71251  49.76768
          Condensed to atoms (all electrons):
              1          2          3          4          5          6
     1  C    4.870237   0.403687   0.407938   0.399562   0.359870  -0.035327
     2  H    0.403687   0.574791  -0.028055  -0.027237  -0.031737  -0.007304
     3  H    0.407938  -0.028055   0.558188  -0.028950  -0.036452   0.008579
     4  H    0.399562  -0.027237  -0.028950   0.585349  -0.033871  -0.006068
     5  C    0.359870  -0.031737  -0.036452  -0.033871   5.140181   0.397548
     6  H   -0.035327  -0.007304   0.008579  -0.006068   0.397548   0.609999
     7  C   -0.069617  -0.005739  -0.005124   0.008222   0.343538  -0.039672
     8  H   -0.006415   0.004506  -0.000935   0.000239  -0.041244  -0.007301
     9  H   -0.003095  -0.000936   0.004452  -0.000281  -0.036032   0.009571
    10  C    0.007288   0.000174   0.000006  -0.000412  -0.050945  -0.005570
    11  H    0.000097   0.000010   0.000005  -0.000011  -0.003019   0.005678
    12  H   -0.000089   0.000019   0.000035   0.000023  -0.007938  -0.001439
    13  C   -0.000259  -0.000041  -0.000008   0.000014   0.006159   0.000008
    14  H    0.000010   0.000007  -0.000016   0.000000   0.000151  -0.000022
    15  H   -0.000032  -0.000020   0.000007   0.000001  -0.000080   0.000065
    16  C    0.000003   0.000001   0.000000   0.000000  -0.000249  -0.000006
    17  H    0.000000   0.000000   0.000000   0.000000   0.000008  -0.000027
    18  C    0.000000   0.000000   0.000000   0.000000   0.000003   0.000000
    19  H    0.000000   0.000000   0.000000   0.000000   0.000000   0.000000
    20  H    0.000000   0.000000   0.000000   0.000000   0.000000   0.000000
    21  H    0.000000   0.000000   0.000000   0.000000   0.000000   0.000000
    22  C   -0.066663   0.007933  -0.010590  -0.003598   0.350235  -0.044076
    23  H   -0.007324   0.000065  -0.000188   0.004293  -0.040146  -0.004218
    24  H    0.007583  -0.000322   0.000472  -0.000046  -0.035924  -0.002690
    25  C    0.000000   0.000000   0.000000   0.000000   0.000013   0.000005
    26  H    0.000000   0.000000   0.000000   0.000000  -0.000001   0.000000
    27  H    0.000000   0.000000   0.000000   0.000000   0.000000  -0.000001
    28  H    0.000000   0.000000   0.000000   0.000000   0.000026   0.000014
    29  O   -0.001294  -0.000045   0.008478  -0.000329  -0.050723   0.004128
    30  O    0.000049  -0.000007  -0.000249   0.000002  -0.004315  -0.000517
              7          8          9         10         11         12
     1  C   -0.069617  -0.006415  -0.003095   0.007288   0.000097  -0.000089
     2  H   -0.005739   0.004506  -0.000936   0.000174   0.000010   0.000019
     3  H   -0.005124  -0.000935   0.004452   0.000006   0.000005   0.000035
     4  H    0.008222   0.000239  -0.000281  -0.000412  -0.000011   0.000023
     5  C    0.343538  -0.041244  -0.036032  -0.050945  -0.003019  -0.007938
     6  H   -0.039672  -0.007301   0.009571  -0.005570   0.005678  -0.001439
     7  C    4.989090   0.410018   0.402550   0.355716  -0.044939  -0.033033
     8  H    0.410018   0.597189  -0.033990  -0.039890  -0.006356   0.008748
     9  H    0.402550  -0.033990   0.573916  -0.038018   0.008730  -0.008291
    10  C    0.355716  -0.039890  -0.038018   4.944603   0.402996   0.397651
    11  H   -0.044939  -0.006356   0.008730   0.402996   0.620260  -0.037559
    12  H   -0.033033   0.008748  -0.008291   0.397651  -0.037559   0.583560
    13  C   -0.048241  -0.005717  -0.003311   0.366908  -0.042179  -0.032821
    14  H   -0.004325  -0.000520   0.003619  -0.040018   0.009588  -0.007947
    15  H   -0.006018   0.005733  -0.000614  -0.042896  -0.007299   0.008547
    16  C    0.006129  -0.000036   0.000083  -0.052260  -0.003954  -0.004539
    17  H   -0.000141   0.000049  -0.000003  -0.007085   0.005950  -0.000549
    18  C   -0.000245  -0.000033   0.000003   0.007618   0.000032  -0.000061
    19  H   -0.000009   0.000009  -0.000011  -0.000045   0.000021   0.000005
    20  H    0.000013   0.000001   0.000000  -0.000417  -0.000010   0.000017
    21  H   -0.000030  -0.000012   0.000004   0.000053   0.000014  -0.000001
    22  C   -0.070081   0.008677  -0.010264  -0.003421  -0.001521   0.000266
    23  H    0.008690  -0.000243  -0.000232  -0.000518  -0.000164   0.000696
    24  H   -0.009210  -0.000021   0.000243   0.001458   0.000517   0.003407
    25  C    0.000030  -0.000012  -0.000015  -0.006382  -0.000983   0.001554
    26  H    0.000013   0.000002  -0.000003   0.000041  -0.000104  -0.000124
    27  H   -0.000077   0.000006  -0.000011  -0.000688   0.000077   0.000555
    28  H   -0.000039  -0.000017   0.000039   0.002132   0.000518   0.000120
    29  O    0.001529  -0.000095   0.001813   0.000102   0.000052  -0.001910
    30  O    0.004206   0.000159   0.005849  -0.003162  -0.000013   0.012842
             13         14         15         16         17         18
     1  C   -0.000259   0.000010  -0.000032   0.000003   0.000000   0.000000
     2  H   -0.000041   0.000007  -0.000020   0.000001   0.000000   0.000000
     3  H   -0.000008  -0.000016   0.000007   0.000000   0.000000   0.000000
     4  H    0.000014   0.000000   0.000001   0.000000   0.000000   0.000000
     5  C    0.006159   0.000151  -0.000080  -0.000249   0.000008   0.000003
     6  H    0.000008  -0.000022   0.000065  -0.000006  -0.000027   0.000000
     7  C   -0.048241  -0.004325  -0.006018   0.006129  -0.000141  -0.000245
     8  H   -0.005717  -0.000520   0.005733  -0.000036   0.000049  -0.000033
     9  H   -0.003311   0.003619  -0.000614   0.000083  -0.000003   0.000003
    10  C    0.366908  -0.040018  -0.042896  -0.052260  -0.007085   0.007618
    11  H   -0.042179   0.009588  -0.007299  -0.003954   0.005950   0.000032
    12  H   -0.032821  -0.007947   0.008547  -0.004539  -0.000549  -0.000061
    13  C    4.959926   0.401270   0.410057   0.367718  -0.048479  -0.066231
    14  H    0.401270   0.602033  -0.036698  -0.038097   0.009939  -0.004715
    15  H    0.410057  -0.036698   0.609227  -0.040162  -0.005997  -0.006593
    16  C    0.367718  -0.038097  -0.040162   5.033012   0.409418   0.376834
    17  H   -0.048479   0.009939  -0.005997   0.409418   0.626324  -0.041872
    18  C   -0.066231  -0.004715  -0.006593   0.376834  -0.041872   4.865984
    19  H   -0.006843   0.004878  -0.000692  -0.038383   0.009699   0.402366
    20  H    0.008587  -0.000311   0.000181  -0.032460  -0.006851   0.401733
    21  H   -0.006007  -0.000530   0.004795  -0.032938  -0.006355   0.401840
    22  C   -0.000197  -0.000042   0.000002   0.000009   0.000000   0.000000
    23  H    0.000014  -0.000003   0.000002   0.000000   0.000000   0.000000
    24  H   -0.000333   0.000050  -0.000005   0.000033   0.000011   0.000000
    25  C   -0.066172  -0.009245   0.008935   0.360525  -0.047310  -0.065942
    26  H    0.008316  -0.000161  -0.000451  -0.032502  -0.006477  -0.006379
    27  H   -0.006653   0.005271  -0.000073  -0.039164   0.009605  -0.005126
    28  H   -0.005494  -0.000188  -0.000129  -0.032274  -0.005722   0.007940
    29  O    0.000040  -0.000014   0.000001   0.000000   0.000000   0.000000
    30  O   -0.000219   0.000109  -0.000007   0.000012   0.000001   0.000000
             19         20         21         22         23         24
     1  C    0.000000   0.000000   0.000000  -0.066663  -0.007324   0.007583
     2  H    0.000000   0.000000   0.000000   0.007933   0.000065  -0.000322
     3  H    0.000000   0.000000   0.000000  -0.010590  -0.000188   0.000472
     4  H    0.000000   0.000000   0.000000  -0.003598   0.004293  -0.000046
     5  C    0.000000   0.000000   0.000000   0.350235  -0.040146  -0.035924
     6  H    0.000000   0.000000   0.000000  -0.044076  -0.004218  -0.002690
     7  C   -0.000009   0.000013  -0.000030  -0.070081   0.008690  -0.009210
     8  H    0.000009   0.000001  -0.000012   0.008677  -0.000243  -0.000021
     9  H   -0.000011   0.000000   0.000004  -0.010264  -0.000232   0.000243
    10  C   -0.000045  -0.000417   0.000053  -0.003421  -0.000518   0.001458
    11  H    0.000021  -0.000010   0.000014  -0.001521  -0.000164   0.000517
    12  H    0.000005   0.000017  -0.000001   0.000266   0.000696   0.003407
    13  C   -0.006843   0.008587  -0.006007  -0.000197   0.000014  -0.000333
    14  H    0.004878  -0.000311  -0.000530  -0.000042  -0.000003   0.000050
    15  H   -0.000692   0.000181   0.004795   0.000002   0.000002  -0.000005
    16  C   -0.038383  -0.032460  -0.032938   0.000009   0.000000   0.000033
    17  H    0.009699  -0.006851  -0.006355   0.000000   0.000000   0.000011
    18  C    0.402366   0.401733   0.401840   0.000000   0.000000   0.000000
    19  H    0.593406  -0.031283  -0.031106   0.000000   0.000000   0.000000
    20  H   -0.031283   0.587822  -0.028356   0.000000   0.000000   0.000000
    21  H   -0.031106  -0.028356   0.589266   0.000000   0.000000   0.000000
    22  C    0.000000   0.000000   0.000000   4.916830   0.392085   0.404425
    23  H    0.000000   0.000000   0.000000   0.392085   0.555148  -0.024149
    24  H    0.000000   0.000000   0.000000   0.404425  -0.024149   0.533437
    25  C   -0.006203  -0.005250   0.008468  -0.000011   0.000000  -0.000019
    26  H   -0.000666   0.004108   0.000058   0.000000   0.000000  -0.000001
    27  H    0.005011  -0.000667  -0.000167   0.000000   0.000000   0.000001
    28  H   -0.000132  -0.000001  -0.000532   0.000006  -0.000005   0.000029
    29  O    0.000000   0.000000   0.000000   0.185866  -0.018991  -0.025341
    30  O    0.000000   0.000000   0.000000  -0.064084   0.005533   0.003998
             25         26         27         28         29         30
     1  C    0.000000   0.000000   0.000000   0.000000  -0.001294   0.000049
     2  H    0.000000   0.000000   0.000000   0.000000  -0.000045  -0.000007
     3  H    0.000000   0.000000   0.000000   0.000000   0.008478  -0.000249
     4  H    0.000000   0.000000   0.000000   0.000000  -0.000329   0.000002
     5  C    0.000013  -0.000001   0.000000   0.000026  -0.050723  -0.004315
     6  H    0.000005   0.000000  -0.000001   0.000014   0.004128  -0.000517
     7  C    0.000030   0.000013  -0.000077  -0.000039   0.001529   0.004206
     8  H   -0.000012   0.000002   0.000006  -0.000017  -0.000095   0.000159
     9  H   -0.000015  -0.000003  -0.000011   0.000039   0.001813   0.005849
    10  C   -0.006382   0.000041  -0.000688   0.002132   0.000102  -0.003162
    11  H   -0.000983  -0.000104   0.000077   0.000518   0.000052  -0.000013
    12  H    0.001554  -0.000124   0.000555   0.000120  -0.001910   0.012842
    13  C   -0.066172   0.008316  -0.006653  -0.005494   0.000040  -0.000219
    14  H   -0.009245  -0.000161   0.005271  -0.000188  -0.000014   0.000109
    15  H    0.008935  -0.000451  -0.000073  -0.000129   0.000001  -0.000007
    16  C    0.360525  -0.032502  -0.039164  -0.032274   0.000000   0.000012
    17  H   -0.047310  -0.006477   0.009605  -0.005722   0.000000   0.000001
    18  C   -0.065942  -0.006379  -0.005126   0.007940   0.000000   0.000000
    19  H   -0.006203  -0.000666   0.005011  -0.000132   0.000000   0.000000
    20  H   -0.005250   0.004108  -0.000667  -0.000001   0.000000   0.000000
    21  H    0.008468   0.000058  -0.000167  -0.000532   0.000000   0.000000
    22  C   -0.000011   0.000000   0.000000   0.000006   0.185866  -0.064084
    23  H    0.000000   0.000000   0.000000  -0.000005  -0.018991   0.005533
    24  H   -0.000019  -0.000001   0.000001   0.000029  -0.025341   0.003998
    25  C    4.885556   0.402649   0.401597   0.403604   0.000000  -0.000017
    26  H    0.402649   0.587946  -0.030781  -0.028499   0.000000   0.000000
    27  H    0.401597  -0.030781   0.589000  -0.030675   0.000000   0.000014
    28  H    0.403604  -0.028499  -0.030675   0.585596   0.000008  -0.000119
    29  O    0.000000   0.000000   0.000000   0.000008   7.977906   0.054026
    30  O   -0.000017   0.000000   0.000014  -0.000119   0.054026   8.146760
 Mulliken atomic charges:
              1
     1  C   -0.266207
     2  H    0.110251
     3  H    0.122408
     4  H    0.103097
     5  C   -0.225057
     6  H    0.118644
     7  C   -0.193204
     8  H    0.107500
     9  H    0.124236
    10  C   -0.195019
    11  H    0.093564
    12  H    0.118257
    13  C   -0.189811
    14  H    0.105926
    15  H    0.100212
    16  C   -0.206753
    17  H    0.105866
    18  C   -0.267155
    19  H    0.099979
    20  H    0.103142
    21  H    0.101534
    22  C    0.008213
    23  H    0.129654
    24  H    0.142399
    25  C   -0.265376
    26  H    0.103018
    27  H    0.102945
    28  H    0.103791
    29  O   -0.135205
    30  O   -0.160849
 Sum of Mulliken atomic charges =   0.00000
 Mulliken charges with hydrogens summed into heavy atoms:
              1
     1  C    0.069548
     5  C   -0.106414
     7  C    0.038532
    10  C    0.016803
    13  C    0.016327
    16  C   -0.100887
    18  C    0.037499
    22  C    0.280266
    25  C    0.044380
    29  O   -0.135205
    30  O   -0.160849
 Sum of Mulliken charges with hydrogens summed into heavy atoms =   0.00000
          Atomic-Atomic Spin Densities.
              1          2          3          4          5          6
     1  C    0.000972  -0.000015  -0.000746  -0.000110  -0.000366  -0.000205
     2  H   -0.000015  -0.000326   0.000041   0.000002   0.000087   0.000085
     3  H   -0.000746   0.000041   0.000406   0.000150  -0.000187   0.000240
     4  H   -0.000110   0.000002   0.000150   0.000096  -0.000301   0.000161
     5  C   -0.000366   0.000087  -0.000187  -0.000301   0.014718  -0.002643
     6  H   -0.000205   0.000085   0.000240   0.000161  -0.002643   0.004630
     7  C   -0.000264  -0.000077   0.000313  -0.000002   0.002263  -0.000210
     8  H    0.000430  -0.000027  -0.000221  -0.000018  -0.000674  -0.000716
     9  H    0.000248   0.000076  -0.000262  -0.000011   0.001506  -0.000408
    10  C   -0.000010  -0.000005   0.000006   0.000001  -0.000933   0.000319
    11  H    0.000000   0.000000   0.000000   0.000000  -0.000024  -0.000046
    12  H   -0.000008   0.000001  -0.000023  -0.000002   0.001094  -0.000220
    13  C    0.000001   0.000001   0.000002   0.000000  -0.000008   0.000001
    14  H    0.000000   0.000000  -0.000001   0.000000  -0.000001  -0.000004
    15  H    0.000000   0.000000   0.000000   0.000000  -0.000001   0.000002
    16  C    0.000000   0.000000   0.000000   0.000000   0.000002   0.000001
    17  H    0.000000   0.000000   0.000000   0.000000   0.000000  -0.000001
    18  C    0.000000   0.000000   0.000000   0.000000   0.000000   0.000000
    19  H    0.000000   0.000000   0.000000   0.000000   0.000000   0.000000
    20  H    0.000000   0.000000   0.000000   0.000000   0.000000   0.000000
    21  H    0.000000   0.000000   0.000000   0.000000   0.000000   0.000000
    22  C    0.000247  -0.000027  -0.000249   0.000030   0.008849  -0.000774
    23  H    0.000173   0.000007   0.000130   0.000082  -0.002495   0.000746
    24  H    0.000049  -0.000010   0.000122   0.000038  -0.005670   0.001592
    25  C    0.000000   0.000000   0.000000   0.000000   0.000000   0.000000
    26  H    0.000000   0.000000   0.000000   0.000000   0.000000   0.000000
    27  H    0.000000   0.000000   0.000000   0.000000   0.000000   0.000000
    28  H    0.000000   0.000000   0.000000   0.000000  -0.000009   0.000004
    29  O   -0.000140   0.000023   0.001123   0.000127  -0.003262   0.000458
    30  O    0.000046   0.000001  -0.000474  -0.000009   0.002678  -0.000138
              7          8          9         10         11         12
     1  C   -0.000264   0.000430   0.000248  -0.000010   0.000000  -0.000008
     2  H   -0.000077  -0.000027   0.000076  -0.000005   0.000000   0.000001
     3  H    0.000313  -0.000221  -0.000262   0.000006   0.000000  -0.000023
     4  H   -0.000002  -0.000018  -0.000011   0.000001   0.000000  -0.000002
     5  C    0.002263  -0.000674   0.001506  -0.000933  -0.000024   0.001094
     6  H   -0.000210  -0.000716  -0.000408   0.000319  -0.000046  -0.000220
     7  C   -0.003502  -0.000516   0.000382   0.000848   0.000023  -0.000389
     8  H   -0.000516   0.003871   0.000448  -0.000140   0.000058   0.000126
     9  H    0.000382   0.000448  -0.001538   0.000381   0.000039  -0.000023
    10  C    0.000848  -0.000140   0.000381  -0.002075  -0.000074   0.000998
    11  H    0.000023   0.000058   0.000039  -0.000074  -0.000021   0.000061
    12  H   -0.000389   0.000126  -0.000023   0.000998   0.000061  -0.001063
    13  C    0.000113  -0.000092  -0.000226   0.000260   0.000014   0.000087
    14  H   -0.000120   0.000061   0.000148  -0.000084   0.000001   0.000063
    15  H    0.000012  -0.000029  -0.000020   0.000025  -0.000003   0.000004
    16  C    0.000013  -0.000003   0.000004   0.000044  -0.000006  -0.000114
    17  H    0.000001   0.000002   0.000001  -0.000005   0.000004   0.000003
    18  C    0.000000   0.000000   0.000000   0.000001   0.000000   0.000000
    19  H    0.000000   0.000000   0.000000   0.000000   0.000000   0.000000
    20  H    0.000000   0.000000   0.000000   0.000000   0.000000   0.000000
    21  H    0.000000   0.000000   0.000000   0.000000   0.000000   0.000000
    22  C    0.000450   0.000003   0.000281   0.000057   0.000038   0.000114
    23  H   -0.000201  -0.000026  -0.000104   0.000057  -0.000001  -0.000127
    24  H    0.000467  -0.000136  -0.000176   0.000254  -0.000061  -0.000975
    25  C   -0.000003  -0.000001  -0.000004  -0.000023  -0.000002   0.000055
    26  H    0.000000   0.000000   0.000000  -0.000001   0.000000   0.000005
    27  H    0.000000   0.000000  -0.000001   0.000008   0.000001  -0.000010
    28  H    0.000007  -0.000003  -0.000001  -0.000068  -0.000011   0.000052
    29  O    0.000277  -0.000208  -0.002612   0.000132  -0.000005  -0.000138
    30  O   -0.001687   0.000115   0.000971   0.000405   0.000014  -0.000759
             13         14         15         16         17         18
     1  C    0.000001   0.000000   0.000000   0.000000   0.000000   0.000000
     2  H    0.000001   0.000000   0.000000   0.000000   0.000000   0.000000
     3  H    0.000002  -0.000001   0.000000   0.000000   0.000000   0.000000
     4  H    0.000000   0.000000   0.000000   0.000000   0.000000   0.000000
     5  C   -0.000008  -0.000001  -0.000001   0.000002   0.000000   0.000000
     6  H    0.000001  -0.000004   0.000002   0.000001  -0.000001   0.000000
     7  C    0.000113  -0.000120   0.000012   0.000013   0.000001   0.000000
     8  H   -0.000092   0.000061  -0.000029  -0.000003   0.000002   0.000000
     9  H   -0.000226   0.000148  -0.000020   0.000004   0.000001   0.000000
    10  C    0.000260  -0.000084   0.000025   0.000044  -0.000005   0.000001
    11  H    0.000014   0.000001  -0.000003  -0.000006   0.000004   0.000000
    12  H    0.000087   0.000063   0.000004  -0.000114   0.000003   0.000000
    13  C   -0.000182  -0.000028  -0.000011   0.000064   0.000006   0.000003
    14  H   -0.000028  -0.000003  -0.000007   0.000034   0.000003  -0.000007
    15  H   -0.000011  -0.000007   0.000006   0.000010  -0.000002   0.000000
    16  C    0.000064   0.000034   0.000010  -0.000038  -0.000014  -0.000009
    17  H    0.000006   0.000003  -0.000002  -0.000014   0.000015   0.000002
    18  C    0.000003  -0.000007   0.000000  -0.000009   0.000002  -0.000004
    19  H   -0.000001   0.000003   0.000000  -0.000001   0.000000   0.000001
    20  H   -0.000001   0.000000   0.000000   0.000000   0.000000   0.000004
    21  H    0.000001  -0.000001   0.000001   0.000001  -0.000001  -0.000002
    22  C   -0.000001   0.000005   0.000000   0.000000   0.000000   0.000000
    23  H    0.000001   0.000000   0.000000   0.000000   0.000000   0.000000
    24  H    0.000049  -0.000017   0.000002  -0.000006  -0.000001   0.000000
    25  C   -0.000022  -0.000016   0.000000   0.000014  -0.000009   0.000010
    26  H   -0.000003   0.000001   0.000000   0.000013   0.000002   0.000001
    27  H   -0.000004   0.000009   0.000000  -0.000001   0.000001  -0.000001
    28  H    0.000007  -0.000018   0.000001  -0.000003  -0.000008   0.000002
    29  O    0.000002  -0.000004   0.000000   0.000000   0.000000   0.000000
    30  O   -0.000038   0.000062  -0.000001   0.000000   0.000000   0.000000
             19         20         21         22         23         24
     1  C    0.000000   0.000000   0.000000   0.000247   0.000173   0.000049
     2  H    0.000000   0.000000   0.000000  -0.000027   0.000007  -0.000010
     3  H    0.000000   0.000000   0.000000  -0.000249   0.000130   0.000122
     4  H    0.000000   0.000000   0.000000   0.000030   0.000082   0.000038
     5  C    0.000000   0.000000   0.000000   0.008849  -0.002495  -0.005670
     6  H    0.000000   0.000000   0.000000  -0.000774   0.000746   0.001592
     7  C    0.000000   0.000000   0.000000   0.000450  -0.000201   0.000467
     8  H    0.000000   0.000000   0.000000   0.000003  -0.000026  -0.000136
     9  H    0.000000   0.000000   0.000000   0.000281  -0.000104  -0.000176
    10  C    0.000000   0.000000   0.000000   0.000057   0.000057   0.000254
    11  H    0.000000   0.000000   0.000000   0.000038  -0.000001  -0.000061
    12  H    0.000000   0.000000   0.000000   0.000114  -0.000127  -0.000975
    13  C   -0.000001  -0.000001   0.000001  -0.000001   0.000001   0.000049
    14  H    0.000003   0.000000  -0.000001   0.000005   0.000000  -0.000017
    15  H    0.000000   0.000000   0.000001   0.000000   0.000000   0.000002
    16  C   -0.000001   0.000000   0.000001   0.000000   0.000000  -0.000006
    17  H    0.000000   0.000000  -0.000001   0.000000   0.000000  -0.000001
    18  C    0.000001   0.000004  -0.000002   0.000000   0.000000   0.000000
    19  H   -0.000001   0.000000   0.000000   0.000000   0.000000   0.000000
    20  H    0.000000  -0.000004   0.000001   0.000000   0.000000   0.000000
    21  H    0.000000   0.000001   0.000001   0.000000   0.000000   0.000000
    22  C    0.000000   0.000000   0.000000  -0.023841   0.001309  -0.000941
    23  H    0.000000   0.000000   0.000000   0.001309   0.004144   0.002296
    24  H    0.000000   0.000000   0.000000  -0.000941   0.002296   0.008601
    25  C   -0.000001  -0.000001   0.000002   0.000000   0.000000   0.000003
    26  H    0.000000  -0.000001   0.000000   0.000000   0.000000   0.000000
    27  H    0.000000   0.000000   0.000000   0.000000   0.000000  -0.000001
    28  H    0.000000   0.000000   0.000000  -0.000001   0.000001   0.000036
    29  O    0.000000   0.000000   0.000000  -0.004587  -0.001768  -0.001914
    30  O    0.000000   0.000000   0.000000  -0.000789   0.000038   0.001082
             25         26         27         28         29         30
     1  C    0.000000   0.000000   0.000000   0.000000  -0.000140   0.000046
     2  H    0.000000   0.000000   0.000000   0.000000   0.000023   0.000001
     3  H    0.000000   0.000000   0.000000   0.000000   0.001123  -0.000474
     4  H    0.000000   0.000000   0.000000   0.000000   0.000127  -0.000009
     5  C    0.000000   0.000000   0.000000  -0.000009  -0.003262   0.002678
     6  H    0.000000   0.000000   0.000000   0.000004   0.000458  -0.000138
     7  C   -0.000003   0.000000   0.000000   0.000007   0.000277  -0.001687
     8  H   -0.000001   0.000000   0.000000  -0.000003  -0.000208   0.000115
     9  H   -0.000004   0.000000  -0.000001  -0.000001  -0.002612   0.000971
    10  C   -0.000023  -0.000001   0.000008  -0.000068   0.000132   0.000405
    11  H   -0.000002   0.000000   0.000001  -0.000011  -0.000005   0.000014
    12  H    0.000055   0.000005  -0.000010   0.000052  -0.000138  -0.000759
    13  C   -0.000022  -0.000003  -0.000004   0.000007   0.000002  -0.000038
    14  H   -0.000016   0.000001   0.000009  -0.000018  -0.000004   0.000062
    15  H    0.000000   0.000000   0.000000   0.000001   0.000000  -0.000001
    16  C    0.000014   0.000013  -0.000001  -0.000003   0.000000   0.000000
    17  H   -0.000009   0.000002   0.000001  -0.000008   0.000000   0.000000
    18  C    0.000010   0.000001  -0.000001   0.000002   0.000000   0.000000
    19  H   -0.000001   0.000000   0.000000   0.000000   0.000000   0.000000
    20  H   -0.000001  -0.000001   0.000000   0.000000   0.000000   0.000000
    21  H    0.000002   0.000000   0.000000   0.000000   0.000000   0.000000
    22  C    0.000000   0.000000   0.000000  -0.000001  -0.004587  -0.000789
    23  H    0.000000   0.000000   0.000000   0.000001  -0.001768   0.000038
    24  H    0.000003   0.000000  -0.000001   0.000036  -0.001914   0.001082
    25  C   -0.000008  -0.000001  -0.000002   0.000014   0.000000   0.000001
    26  H   -0.000001  -0.000003   0.000005  -0.000017   0.000000   0.000000
    27  H   -0.000002   0.000005  -0.000006   0.000004   0.000000   0.000000
    28  H    0.000014  -0.000017   0.000004   0.000024   0.000000   0.000008
    29  O    0.000000   0.000000   0.000000   0.000000   0.447474  -0.132695
    30  O    0.000001   0.000000   0.000000   0.000008  -0.132695   0.822665
 Mulliken atomic spin densities:
              1
     1  C    0.000302
     2  H   -0.000163
     3  H    0.000368
     4  H    0.000233
     5  C    0.014622
     6  H    0.002873
     7  C   -0.001803
     8  H    0.002305
     9  H   -0.000900
    10  C    0.000377
    11  H   -0.000003
    12  H   -0.001191
    13  C   -0.000006
    14  H    0.000078
    15  H   -0.000012
    16  C    0.000004
    17  H    0.000000
    18  C   -0.000001
    19  H    0.000000
    20  H   -0.000001
    21  H    0.000000
    22  C   -0.019828
    23  H    0.004259
    24  H    0.004684
    25  C    0.000003
    26  H    0.000001
    27  H    0.000001
    28  H    0.000021
    29  O    0.302283
    30  O    0.691495
 Sum of Mulliken atomic spin densities =   1.00000
 APT atomic charges:
              1
     1  C   -1.346567
     2  H    0.385167
     3  H    0.307860
     4  H    0.632912
     5  C   -0.407648
     6  H    0.345884
     7  C   -0.548260
     8  H    0.378846
     9  H    0.249653
    10  C   -0.483817
    11  H    0.326839
    12  H    0.212759
    13  C   -0.517357
    14  H    0.242136
    15  H    0.367726
    16  C   -0.443426
    17  H    0.336956
    18  C   -1.425947
    19  H    0.289578
    20  H    0.728034
    21  H    0.361785
    22  C   -0.639555
    23  H    0.687883
    24  H    0.114864
    25  C   -1.014864
    26  H    0.728923
    27  H    0.265698
    28  H    0.038978
    29  O   -0.038875
    30  O   -0.136164
 Sum of APT charges=   0.00000
 APT Atomic charges with hydrogens summed into heavy atoms:
              1
     1  C   -0.020628
     2  H    0.000000
     3  H    0.000000
     4  H    0.000000
     5  C   -0.061765
     6  H    0.000000
     7  C    0.080239
     8  H    0.000000
     9  H    0.000000
    10  C    0.055781
[...]
 6,-0.00000100,-0.00005197,-0.00021791,-0.00026254,-0.00001973,0.000152
 96,-0.00020503,0.00007546,0.00062989,0.00086460,-0.00013726,0.00029883
 ,0.00036832,0.00009568,-0.00007037,-0.00002152,0.00007737,-0.00019832,
 0.00005828,0.00009428,0.00008468,0.00002363,0.00002694,0.00000941,-0.0
 0001306,0.00000123,-0.00001461,-0.00002367,-0.00002097,0.00000163,-0.0
 0000122,0.00000902,-0.00002656,-0.00000382,-0.00000230,0.00000646,0.00
 000437,0.00000034,-0.10483497,-0.12465808,-0.07408893,0.00095194,0.000
 93150,0.00001651,0.10501714,0.13409485,0.00070551,-0.00089637,0.000843
 87,-0.00041763,-0.00000354,0.00002298,0.00011931,0.00023912,0.00014377
 ,-0.00035317,-0.00013542,0.00003545,-0.00428442,-0.00433261,-0.0022767
 3,0.00019231,-0.00007811,0.00052698,-0.00082345,0.00018653,-0.00011307
 ,0.00000661,0.00007839,0.00010632,0.00005919,0.00002499,0.00001610,-0.
 00011530,-0.00071320,0.00030433,0.00000567,0.00007373,-0.00005747,0.00
 063886,0.00034891,-0.00001055,0.00012097,0.00034598,-0.00008794,-0.000
 01785,-0.00001923,0.00002408,-0.00013014,0.00004669,0.00007744,0.00004
 327,0.00000888,0.00006272,-0.00000007,0.00000391,-0.00000781,-0.000018
 73,-0.00001219,-0.00002757,0.00000275,-0.00000105,0.00000473,-0.000023
 67,-0.00000371,0.00000088,0.00000592,0.00000003,0.00000170,-0.08204788
 ,-0.06688859,-0.10783841,0.01121183,0.00829500,0.01118893,0.10184115,0
 .06958046,0.12268926,-0.00002860,0.00002631,0.00003628,0.00001912,0.00
 002253,0.00000370,0.00000829,-0.00000339,-0.00000254,-0.00003142,-0.00
 000754,0.00000254,0.00002528,0.00008881,-0.00006038,-0.00001103,-0.000
 00932,0.00002434,-0.00005646,-0.00021335,0.00011839,-0.00001459,0.0002
 8412,0.00007438,0.00006088,0.00001097,0.00000695,0.00050903,-0.0007758
 2,-0.00049069,-0.00004808,-0.00020006,0.00024948,-0.00087394,-0.000553
 50,-0.00036407,-0.00078488,-0.03036664,-0.00438631,0.00106437,0.000331
 59,0.00082333,-0.00503010,-0.00243864,-0.00252497,-0.07800639,-0.00245
 208,-0.00055277,-0.00015572,0.00120986,0.00009911,-0.00152752,0.029585
 17,0.00444085,0.00092178,-0.00041257,-0.00070553,0.00063290,0.00093266
 ,0.00004758,-0.00453217,0.00267860,0.00318486,-0.00014041,-0.00010994,
 -0.00003316,-0.00001850,0.00003474,0.00001269,-0.00000635,0.00000320,-
 0.00000160,0.56997703,0.00005299,-0.00002009,-0.00004745,-0.00000577,-
 0.00000382,-0.00000238,-0.00000170,0.00000234,0.00000278,0.00002313,0.
 00001287,0.00000797,0.00008055,0.00010449,0.00014156,-0.00000132,-0.00
 000125,-0.00000490,0.00054311,-0.00036728,-0.00040208,-0.00015594,-0.0
 0005546,-0.00005742,-0.00000579,0.00001692,-0.00000185,-0.00032290,0.0
 0093725,0.00035207,-0.00003843,-0.00004580,0.00007156,-0.00010994,-0.0
 0064185,-0.00004547,-0.00637481,-0.01427136,-0.00430324,0.00130633,0.0
 0122366,0.00083685,-0.00061589,0.00111183,0.00032109,-0.00009861,-0.17
 612030,-0.00981197,-0.00008106,-0.01845230,-0.00194746,0.00554576,-0.0
 1700775,-0.00527494,-0.00130434,0.00122915,0.00091631,-0.00127235,0.00
 075546,0.00066469,0.00050664,0.00074488,-0.00042067,0.00003021,0.00006
 662,0.00000733,-0.00000250,-0.00001593,-0.00000248,0.00001969,-0.00001
 872,-0.00000455,-0.00678178,0.45771827,0.00000209,-0.00000983,0.000024
 82,0.00000376,0.00000136,-0.00000666,-0.00000249,0.00000079,-0.0000085
 1,-0.00002252,0.00000086,0.00000312,0.00004273,0.00010178,-0.00006680,
 0.00000509,0.00000690,0.00000107,0.00034084,-0.00053817,0.00007814,-0.
 00014347,-0.00002240,-0.00010778,-0.00003246,0.00003032,-0.00004941,-0
 .00052555,0.00079943,-0.00002617,-0.00012918,-0.00012357,0.00012975,0.
 00031475,-0.00075802,0.00033702,-0.00209551,-0.01669701,-0.00314496,0.
 00034097,-0.00117687,0.00048680,-0.00267549,-0.00158563,-0.00096701,0.
 00076200,-0.00744099,-0.07956532,0.00041126,0.03032804,0.00401252,0.00
 209497,-0.02069584,-0.00333959,-0.00039420,-0.00103557,0.00051884,-0.0
 0107851,0.00068961,0.00046907,0.00270204,-0.00204626,-0.00173013,0.000
 07671,0.00002148,0.00013567,-0.00004010,0.00000972,-0.00002192,0.00003
 844,-0.00002797,-0.00004404,-0.00253199,-0.00671340,0.56028570,-0.0000
 2165,0.00001410,0.00003288,0.00000948,-0.00000048,-0.00000368,0.000004
 60,0.00000243,-0.00000406,-0.00003576,-0.00000563,0.00000443,0.0000453
 5,0.00000481,-0.00007052,0.00000377,-0.00000222,0.00001031,0.00013553,
 -0.00020120,0.00004794,-0.00011715,-0.00004725,-0.00004879,-0.00001017
 ,0.00001535,-0.00000937,-0.00005814,0.00034407,-0.00021458,-0.00000388
 ,-0.00010187,0.00005758,0.00036096,-0.00031983,-0.00004182,0.00090874,
 0.00001401,0.00087882,0.00005145,0.00014676,0.00005810,-0.00002419,-0.
 00008275,-0.00009679,-0.00100189,0.00039420,0.00040570,0.00010589,-0.0
 0052963,0.00031743,0.00070525,0.00086525,0.00047489,-0.00003685,-0.000
 02694,0.00001977,0.00055774,-0.00001097,-0.00016356,0.00024571,-0.0000
 9209,0.00012986,0.00004085,0.00000156,0.00001653,-0.00003781,0.0000029
 6,-0.00000315,0.00003663,-0.00002873,-0.00003238,-0.23569252,-0.059917
 56,-0.09835623,0.25562511,-0.00002401,0.00001314,0.00003021,0.00000863
 ,0.00000695,-0.00000053,0.00000230,-0.00000253,-0.00000475,-0.00002347
 ,-0.00000741,0.00000001,-0.00001342,0.00001064,-0.00007638,0.00000010,
 0.00000368,0.00000854,-0.00017544,0.00008630,0.00014153,0.00005888,0.0
 0010856,0.00004125,0.00000723,-0.00000891,-0.00001358,0.00068375,-0.00
 022742,-0.00030460,-0.00004948,0.00001001,0.00005561,-0.00016767,0.000
 25327,0.00010652,0.00190438,-0.00667160,0.00007046,0.00017976,0.000115
 16,-0.00012580,-0.00180457,-0.00081697,-0.00096001,-0.02890951,-0.0091
 4942,-0.01596243,0.00003719,0.00118998,0.00065583,-0.00153561,0.001431
 54,0.00011454,0.00017413,-0.00003364,0.00000544,0.00099168,-0.00006572
 ,-0.00001875,0.00004475,0.00029584,0.00044676,-0.00002607,-0.00005428,
 0.00002808,-0.00001559,0.00001883,-0.00000154,0.00000173,-0.00000599,-
 0.00000570,-0.05859707,-0.06464619,-0.03018166,0.06543046,0.07219333,-
 0.00000679,0.00000727,0.00000697,0.00000318,-0.00000087,-0.00000008,0.
 00000238,0.00000087,-0.00000042,-0.00000827,-0.00000263,0.00000139,-0.
 00000830,-0.00000518,-0.00001277,-0.00000136,-0.00000271,0.00000330,-0
 .00012863,0.00015673,0.00003787,0.00007710,0.00003346,0.00003662,0.000
 02038,0.00000361,0.00001610,0.00033165,-0.00014959,0.00006426,-0.00005
 116,-0.00001984,0.00001109,-0.00015547,0.00023989,-0.00008512,0.000552
 23,-0.00123084,0.00043694,0.00033501,0.00015368,0.00047529,-0.00044064
 ,-0.00034730,0.00020509,-0.00252106,-0.00028176,-0.00274868,0.00042976
 ,-0.00023064,0.00042823,-0.00071573,0.00016811,-0.00012414,-0.00010180
 ,-0.00004083,-0.00006994,0.00052366,-0.00032292,0.00016084,0.00026538,
 0.00019389,0.00006643,-0.00001572,-0.00001150,-0.00002348,-0.00000302,
 0.00000291,0.00000655,-0.00000205,-0.00000176,0.00000326,-0.09780986,-
 0.03075528,-0.09800844,0.10810146,0.03481862,0.10244180,-0.00000160,-0
 .00000382,-0.00000266,-0.00000194,0.00000434,0.00000114,-0.00000356,-0
 .00000411,-0.00000317,0.00000601,-0.00000007,-0.00000160,-0.00001077,-
 0.00000870,-0.00001073,0.00000392,0.00001396,-0.00000697,0.00001681,-0
 .00000378,-0.00001385,0.00000452,-0.00000209,-0.00000266,-0.00003404,-
 0.00001732,-0.00003451,-0.00017524,-0.00000315,-0.00004764,0.00006777,
 0.00015969,-0.00007580,-0.00007013,-0.00004062,0.00014198,0.00041992,-
 0.00050471,0.00121499,0.00012949,-0.00006531,-0.00019504,-0.00002240,0
 .00012716,-0.00009553,-0.00113202,-0.00075116,0.00092182,0.00066844,-0
 .00030991,0.00004550,0.00007645,0.00033648,-0.00092525,0.00018855,0.00
 020495,0.00023277,-0.00000127,0.00005497,-0.00012929,-0.00007647,-0.00
 016682,0.00016077,0.00001317,-0.00002066,0.00005488,0.00000541,0.00000
 505,-0.00001054,-0.00000502,-0.00000172,0.00000911,-0.04845115,0.00689
 855,-0.01274681,-0.00093589,0.01355255,-0.02498244,0.04725582,-0.00000
 640,0.00000071,0.00000594,0.00000075,0.00000145,0.00000261,-0.00000271
 ,0.00000042,-0.00000216,-0.00000155,-0.00000218,-0.00000180,-0.0000118
 6,-0.00001475,-0.00001839,0.00000763,0.00000408,-0.00000681,-0.0000485
 0,0.00003602,0.00002722,0.00000349,0.00000328,0.00000776,-0.00003994,-
 0.00000894,-0.00002458,-0.00015957,-0.00004860,-0.00010394,0.00019333,
 0.00004716,-0.00014890,-0.00011402,-0.00003305,0.00006580,0.00101309,0
 .00146892,0.00157557,-0.00060760,0.00021800,-0.00099544,0.00022415,0.0
 0046511,-0.00034052,0.00180887,-0.01739124,0.03065553,-0.00008439,-0.0
 0660208,-0.00140898,-0.00082217,0.00141874,0.00129056,0.00050225,0.000
 10557,-0.00099511,0.00004095,-0.00003328,-0.00011136,-0.00020695,0.000
 38296,-0.00035735,-0.00000049,-0.00001485,0.00000988,0.00000151,0.0000
 0292,-0.00000213,-0.00000554,0.00000063,0.00000058,0.00671642,-0.09992
 781,0.10266676,0.00040432,0.00376694,-0.00827777,-0.00717156,0.1116812
 2,0.00001587,-0.00000615,-0.00001630,-0.00000296,-0.00000605,-0.000001
 52,0.00000256,0.00000321,0.00000904,0.00001132,0.00000488,0.00000011,-
 0.00000462,0.00002659,0.00004109,-0.00000376,-0.00002195,0.00000738,-0
 .00003390,0.00001169,-0.00004273,0.00001196,0.00000175,0.00001003,0.00
 003275,0.00001556,0.00004009,0.00013718,0.00012484,0.00008062,-0.00004
 457,-0.00012514,0.00004066,0.00001182,0.00011638,-0.00016932,-0.000007
 28,-0.00033929,0.00088017,0.00044578,0.00037545,0.00025767,0.00014879,
 0.00004769,0.00022660,0.00039860,-0.00114022,0.00275086,-0.00000650,-0
 .00113282,0.00143834,-0.00007288,-0.00036508,0.00091629,-0.00038861,0.
 00029427,0.00024481,0.00004638,0.00003753,-0.00008834,-0.00010324,0.00
 007915,0.00024387,-0.00002853,0.00004125,-0.00008006,0.00000887,-0.000
 01132,0.00001301,-0.00000443,0.00001593,0.00000032,-0.01257480,0.10290
 164,-0.24728282,-0.00017798,0.00566300,-0.01233000,0.01411138,-0.11425
 907,0.26869857,0.00001647,-0.00000692,-0.00001588,-0.00000419,-0.00000
 315,0.00000028,-0.00000298,0.00000106,-0.00000079,0.00001238,0.0000046
 2,0.00000041,0.00002547,0.00001962,0.00004371,0.00000034,0.00000637,-0
 .00000765,0.00014984,-0.00017518,-0.00011722,-0.00006768,-0.00005323,-
 0.00003731,-0.00000720,0.00000169,-0.00000970,-0.00093291,-0.00038898,
 -0.00019907,0.00003895,0.00010838,0.00002778,-0.00099132,-0.00140222,-
 0.00040369,-0.00004596,0.00040392,-0.00020269,-0.00002066,-0.00005135,
 -0.00006548,0.00011575,0.00009306,0.00012713,0.00123771,-0.00058981,-0
 .00186940,0.00020170,0.00054656,-0.00022021,0.00057327,0.00057726,-0.0
 0049199,-0.00002572,-0.00012599,-0.00000097,0.00048726,-0.00021130,0.0
 0001289,0.00013978,-0.00003176,0.00029678,0.00001014,0.00000576,0.0000
 0208,0.00001547,0.00000226,0.00000155,-0.00001355,0.00000506,0.0000162
 5,-0.19783464,0.06211966,0.11368541,-0.02077627,0.00824191,0.01632568,
 0.00200807,-0.00164859,-0.00189194,0.21567115,0.00002034,-0.00001498,-
 0.00002238,-0.00000667,-0.00000062,0.00000064,0.00000012,-0.00000024,0
 .00000669,0.00002550,0.00000434,-0.00000366,-0.00007458,0.00000690,0.0
 0004881,-0.00000780,-0.00001632,0.00000040,-0.00031338,0.00027387,0.00
 009141,0.00017444,0.00009718,0.00007004,0.00006975,-0.00000021,0.00005
 810,-0.00010871,-0.00037691,-0.00012771,-0.00008348,-0.00012892,0.0000
 9642,-0.00099808,0.00008080,-0.00022087,0.00069536,0.00119150,0.000062
 38,-0.00012524,-0.00006057,-0.00000552,0.00008860,0.00007689,0.0002030
 9,0.02606123,-0.00824075,-0.01910139,0.00000015,0.00132128,0.00066605,
 -0.00173653,-0.00682693,0.00004101,-0.00018082,0.00008492,-0.00018565,
 -0.00008503,0.00010667,0.00030084,0.00169904,-0.00081399,-0.00126494,-
 0.00005209,-0.00000814,-0.00006232,0.00002958,0.00000014,0.00000948,-0
 .00003019,0.00004485,0.00002283,0.06094072,-0.07230968,-0.04563242,-0.
 00629882,0.00214177,0.00589914,-0.01231513,0.00447104,0.00771103,-0.06
 742881,0.07894531,0.00000178,0.00000092,-0.00001613,-0.00000288,0.0000
 0844,0.00000436,-0.00000229,-0.00000728,-0.00000146,0.00001842,-0.0000
 0163,-0.00000266,-0.00004770,-0.00003247,0.00002877,-0.00000314,0.0000
 1463,-0.00000759,-0.00028590,0.00041199,-0.00000678,0.00016212,0.00012
 541,0.00009196,0.00000560,-0.00004214,-0.00001086,0.00052527,-0.000782
 96,0.00024137,-0.00002671,0.00017614,-0.00010741,-0.00076102,0.0003409
 6,0.00015438,0.00076440,-0.00009631,-0.00018348,0.00004903,-0.00003386
 ,-0.00001461,-0.00013593,0.00003984,0.00003837,0.00137829,0.00000758,-
 0.00288436,-0.00043599,-0.00027143,0.00059306,-0.00063448,-0.00113447,
 0.00071170,-0.00028999,0.00020458,0.00046490,0.00026304,0.00009026,0.0
 0001324,0.00045034,-0.00012229,0.00026744,-0.00005225,-0.00005784,0.00
 000818,0.00002790,0.00000985,-0.00000023,-0.00002985,0.00001512,0.0000
 3682,0.11283785,-0.04643184,-0.13198729,-0.01130731,0.00547942,0.00897
 893,0.02242814,-0.00924021,-0.01594650,-0.12500156,0.05129406,0.139504
 62,0.00045287,-0.00124895,0.00059934,0.00005441,-0.00015181,0.00008048
 ,0.00040745,-0.00000466,0.00052292,0.00007649,0.00010904,-0.00001194,-
 0.00215364,0.00973862,-0.01074492,0.00030038,0.00242875,0.00108725,0.0
 0026005,-0.00021540,-0.00044104,0.00028964,-0.00027262,-0.00017561,-0.
 00056813,0.00059438,0.00011573,-0.00060148,-0.00042927,-0.00012996,0.0
 0021050,-0.00008892,0.00006084,-0.00016148,0.00009798,0.00021755,0.000
 16536,0.00010036,0.00022167,0.00002387,-0.00004828,-0.00007155,-0.0000
 7361,0.00011986,0.00000944,0.00003430,-0.00007232,-0.00004687,-0.00001
 194,0.00002999,-0.00002156,0.00002709,0.00003330,0.00001394,0.00000838
 ,-0.00000758,-0.00000794,-0.00000181,-0.00000968,-0.00000921,-0.000013
 08,0.00003230,0.00001050,-0.10203795,0.00092195,-0.03765601,0.00759846
 ,-0.01621552,0.02460207,-0.00841170,0.01446948,-0.02461569,0.00004441,
 -0.00004751,0.00000529,-0.00005731,0.00004350,-0.00002364,0.00008060,0
 .00001732,-0.00007438,0.00001220,0.00000400,0.00010721,0.37460471,0.00
 007605,0.00093674,-0.00112037,0.00030332,0.00013806,0.00060682,-0.0000
 9569,-0.00067846,0.00069249,-0.00016719,-0.00016952,0.00029733,0.00907
 378,-0.02577042,0.03242953,0.00190228,-0.00608176,-0.00211330,-0.00219
 885,0.00260529,0.00169593,-0.00062494,0.00048484,-0.00020685,0.0002413
 7,-0.00006333,-0.00099993,0.00004916,-0.00060050,0.00019310,-0.0001050
 1,0.00021293,-0.00011075,0.00022439,0.00033795,0.00048149,0.00011426,0
 .00023597,0.00017316,0.00006440,-0.00007730,-0.00011937,-0.00010507,0.
 00006716,0.00002777,0.00003558,-0.00007923,-0.00005240,-0.00002254,0.0
 0003063,-0.00002820,0.00002811,0.00002598,0.00002353,0.00000475,-0.000
 00407,-0.00001554,0.00001513,-0.00000591,-0.00000387,-0.00001202,0.000
 02309,0.00000590,0.01847517,-0.05466493,0.03107148,0.00012117,-0.00513
 919,0.00956160,-0.00021785,0.00416661,-0.00236607,0.00000707,-0.000043
 18,0.00003073,-0.00002234,0.00003410,-0.00001789,0.00005724,0.00001791
 ,-0.00006768,0.00000183,-0.00000996,0.00006651,0.13246385,0.19537072,-
 0.00084325,-0.00124014,0.00037463,0.00011013,-0.00018170,0.00024179,0.
 00051606,0.00001284,0.00079075,0.00002748,-0.00005291,0.00000418,-0.00
 527843,0.01547073,-0.00087705,0.00052929,-0.00084416,0.00147013,0.0014
 1953,-0.00127409,-0.00134593,0.00024482,0.00002039,0.00047518,-0.00006
 776,-0.00074041,0.00100381,-0.00032143,0.00007731,-0.00006362,0.000131
 19,-0.00011349,0.00013050,0.00004291,0.00028033,-0.00012627,0.00010711
 ,0.00005349,-0.00006155,-0.00006504,-0.00000806,0.00010193,-0.00005125
 ,0.00000572,0.00005332,0.00001466,0.00004215,0.00003569,0.00001935,-0.
 00002924,0.00002412,-0.00001316,-0.00001452,-0.00002482,-0.00000588,-0
 .00000153,0.00001731,-0.00001188,0.00000338,0.00000404,0.00000422,-0.0
 0000804,-0.00000269,-0.05756761,0.01552098,-0.11044334,-0.00516117,0.0
 1191557,-0.01861161,-0.00832864,0.02082913,-0.03133580,0.00002618,0.00
 000484,-0.00005744,0.00000245,-0.00001519,0.00001359,-0.00003721,-0.00
 000631,0.00005268,-0.00000255,0.00004050,-0.00002702,-0.01303739,-0.14
 525796,0.23243361,-0.00017576,-0.00005028,-0.00002223,0.00009647,0.000
 00761,0.00000867,-0.00025970,-0.00023364,-0.00003744,0.00009568,0.0001
 3594,-0.00014972,-0.00052105,0.00154311,0.00035039,-0.00000623,-0.0002
 3877,-0.00038485,0.00006055,-0.00020427,-0.00079787,0.00013150,0.00016
 521,-0.00001675,0.00027017,0.00006507,-0.00032258,-0.00022734,-0.00016
 242,-0.00070519,-0.00018594,0.00032448,-0.00001801,0.00019017,0.000719
 86,0.00014662,0.00008942,0.00016405,-0.00018109,0.00000077,-0.00001885
 ,0.00004300,-0.00007942,0.00000636,0.00007971,0.00004047,0.00006805,0.
 00007520,0.00000568,-0.00002113,0.00000402,-0.00003431,-0.00003189,-0.
 00003684,0.00000177,0.00000094,0.00001452,-0.00003660,-0.00000170,0.00
 000220,0.00001242,-0.00000912,-0.00000075,0.00453395,-0.01227565,0.021
 40766,0.00189795,-0.00062070,-0.00048693,0.00265828,0.00340250,-0.0020
 9672,-0.00001862,0.00001158,-0.00005183,-0.00002756,-0.00002101,0.0000
 0808,-0.00002345,-0.00000225,0.00003712,0.00000715,0.00003655,-0.00000
 238,-0.27055906,-0.15968739,0.08759726,0.26206263,-0.00009638,0.000037
 16,0.00061091,0.00004641,0.00011404,-0.00017209,-0.00017940,-0.0002593
 5,-0.00031525,0.00001715,0.00004022,-0.00012239,0.00012927,0.00087086,
 0.00133495,0.00026618,-0.00011335,-0.00038201,0.00087366,-0.00069391,-
 0.00081381,-0.00002421,-0.00045063,0.00030708,0.00098712,-0.00060540,0
 .00034191,0.00024738,0.00016214,0.00002467,0.00009304,-0.00031131,0.00
 004825,-0.00035756,-0.00067477,-0.00040409,-0.00012070,-0.00020052,0.0
 0000759,-0.00004853,0.00005752,0.00006084,0.00013055,-0.00004588,-0.00
 005298,-0.00009524,-0.00006161,-0.00005697,0.00001713,0.00000384,0.000
 02153,0.00002711,0.00004197,0.00003377,-0.00001051,-0.00000153,-0.0000
 0630,0.00004710,0.00000447,0.00000373,-0.00001347,-0.00000228,0.000000
 52,-0.02711101,-0.02344603,0.02096273,0.00114892,-0.00271540,0.0021376
 8,-0.00056055,0.00209338,-0.00379570,0.00004893,0.00002506,-0.00000216
 ,0.00004803,0.00001003,0.00002113,-0.00002432,-0.00001632,0.00000291,-
 0.00002173,-0.00003928,-0.00003099,-0.14239216,-0.11130022,0.08551037,
 0.16692777,0.13747711,-0.00016014,0.00041975,-0.00064393,0.00010399,0.
 00003453,0.00029551,0.00009427,0.00006965,0.00037664,-0.00012357,-0.00
 006040,0.00002169,0.00137805,-0.00184542,-0.00034360,-0.00016085,-0.00
 007836,0.00038620,-0.00013993,-0.00015879,0.00011276,-0.00004275,-0.00
 004319,0.00020921,-0.00031284,0.00015733,0.00059061,-0.00049275,-0.000
 57438,-0.00014594,0.00002373,0.00020759,0.00005650,0.00034046,0.000461
 02,-0.00007826,0.00005040,0.00030935,-0.00012952,-0.00005353,-0.000032
 85,0.00005931,-0.00009885,0.00004894,0.00006988,0.00000046,-0.00003070
 ,0.00004719,0.00001391,0.00000467,0.00000906,-0.00000574,0.00001524,-0
 .00001911,-0.00000211,-0.00000808,0.00000868,-0.00001065,-0.00000560,0
 .00000118,-0.00000348,0.00001159,0.00000408,0.04180731,0.02706005,-0.0
 2310184,-0.00063632,0.00626633,-0.00602840,0.00346109,-0.00207564,0.00
 570944,0.00005017,-0.00000130,-0.00006822,-0.00002793,0.00000508,0.000
 00850,-0.00000077,-0.00000737,0.00000538,-0.00000182,0.00000395,0.0000
 5827,0.05941349,0.07512282,-0.07425015,-0.10446328,-0.10527582,0.09677
 888\\0.00000074,-0.00000259,0.00000116,0.00000158,-0.00000185,0.000000
 11,0.00000028,-0.00000218,0.00000060,0.00000090,-0.00000302,0.00000064
 ,-0.00000047,-0.00000081,0.00000003,0.00000098,-0.00000174,0.00000012,
 0.00000173,-0.00000142,-0.00000010,0.00000102,-0.00000052,-0.00000059,
 -0.00000026,-0.00000042,0.00000183,0.00000217,-0.00000072,0.00000137,0
 .00000101,-0.00000012,-0.00000067,-0.00000157,-0.00000176,0.00000056,-
 0.00000051,0.00000031,-0.00000265,0.00000019,0.00000155,0.00000085,0.0
 0000157,0.00000088,-0.00000099,0.00000190,-0.00000419,0.00000084,-0.00
 000030,0.00000380,-0.00000080,0.00000119,0.00000273,-0.00000205,-0.000
 00076,0.00000273,0.00000093,-0.00000040,0.00000322,-0.00000158,0.00000
 067,0.00000285,-0.00000145,-0.00000144,-0.00000289,0.00000053,0.000000
 29,-0.00000237,0.00000197,-0.00000052,-0.00000145,0.00000289,-0.000000
 74,0.00000378,-0.00000243,-0.00000098,0.00000303,0.00000035,-0.0000028
 3,0.00000171,0.00000035,-0.00000098,0.00000142,0.00000055,0.00000013,-
 0.00000161,-0.00000012,-0.00000460,0.00000168,-0.00000227\\\@
 Job cpu time:  0 days 12 hours  0 minutes 22.2 seconds.
 File lengths (MBytes):  RWF=  80171 Int=      0 D2E=      0 Chk=     26 Scr=      1
 Normal termination of Gaussian 09 at Tue Feb  4 01:49:27 2014.
