 Entering Gaussian System, Link 0=/share/apps/g09/g09
 Input=DMM3_1_opt_b3631gd.gjf
 Output=DMM3_1_opt_b3631gd.log
 Initial command:
 /share/apps/g09/l1.exe /state/partition1/Gau-13364.inp -scrdir=/state/partition1/
 Entering Link 1 = /share/apps/g09/l1.exe PID=     13365.
  
 Copyright (c) 1988,1990,1992,1993,1995,1998,2003,2009, Gaussian, Inc.
                  All Rights Reserved.
  
 This is part of the Gaussian(R) 09 program.  It is based on
 the Gaussian(R) 03 system (copyright 2003, Gaussian, Inc.),
 the Gaussian(R) 98 system (copyright 1998, Gaussian, Inc.),
 the Gaussian(R) 94 system (copyright 1995, Gaussian, Inc.),
 the Gaussian 92(TM) system (copyright 1992, Gaussian, Inc.),
 the Gaussian 90(TM) system (copyright 1990, Gaussian, Inc.),
 the Gaussian 88(TM) system (copyright 1988, Gaussian, Inc.),
 the Gaussian 86(TM) system (copyright 1986, Carnegie Mellon
 University), and the Gaussian 82(TM) system (copyright 1983,
 Carnegie Mellon University). Gaussian is a federally registered
 trademark of Gaussian, Inc.
  
 This software contains proprietary and confidential information,
 including trade secrets, belonging to Gaussian, Inc.
  
 This software is provided under written license and may be
 used, copied, transmitted, or stored only in accord with that
 written license.
  
 The following legend is applicable only to US Government
 contracts under FAR:
  
                    RESTRICTED RIGHTS LEGEND
  
 Use, reproduction and disclosure by the US Government is
 subject to restrictions as set forth in subparagraphs (a)
 and (c) of the Commercial Computer Software - Restricted
 Rights clause in FAR 52.227-19.
  
 Gaussian, Inc.
 340 Quinnipiac St., Bldg. 40, Wallingford CT 06492
  
  
 ---------------------------------------------------------------
 Warning -- This program may not be used in any manner that
 competes with the business of Gaussian, Inc. or will provide
 assistance to any competitor of Gaussian, Inc.  The licensee
 of this program is prohibited from giving any competitor of
 Gaussian, Inc. access to this program.  By using this program,
 the user acknowledges that Gaussian, Inc. is engaged in the
 business of creating and licensing software in the field of
 computational chemistry and represents and warrants to the
 licensee that it is not a competitor of Gaussian, Inc. and that
 it will not use this program in any manner prohibited above.
 ---------------------------------------------------------------
  

 Cite this work as:
 Gaussian 09, Revision A.01,
 M. J. Frisch, G. W. Trucks, H. B. Schlegel, G. E. Scuseria, 
 M. A. Robb, J. R. Cheeseman, G. Scalmani, V. Barone, B. Mennucci, 
 G. A. Petersson, H. Nakatsuji, M. Caricato, X. Li, H. P. Hratchian, 
 A. F. Izmaylov, J. Bloino, G. Zheng, J. L. Sonnenberg, M. Hada, 
 M. Ehara, K. Toyota, R. Fukuda, J. Hasegawa, M. Ishida, T. Nakajima, 
 Y. Honda, O. Kitao, H. Nakai, T. Vreven, J. A. Montgomery, Jr., 
 J. E. Peralta, F. Ogliaro, M. Bearpark, J. J. Heyd, E. Brothers, 
 K. N. Kudin, V. N. Staroverov, R. Kobayashi, J. Normand, 
 K. Raghavachari, A. Rendell, J. C. Burant, S. S. Iyengar, J. Tomasi, 
 M. Cossi, N. Rega, J. M. Millam, M. Klene, J. E. Knox, J. B. Cross, 
 V. Bakken, C. Adamo, J. Jaramillo, R. Gomperts, R. E. Stratmann, 
 O. Yazyev, A. J. Austin, R. Cammi, C. Pomelli, J. W. Ochterski, 
 R. L. Martin, K. Morokuma, V. G. Zakrzewski, G. A. Voth, 
 P. Salvador, J. J. Dannenberg, S. Dapprich, A. D. Daniels, 
 O. Farkas, J. B. Foresman, J. V. Ortiz, J. Cioslowski, 
 and D. J. Fox, Gaussian, Inc., Wallingford CT, 2009.
 
 ******************************************
 Gaussian 09:  EM64L-G09RevA.01  8-May-2009
                26-May-2015 
 ******************************************
 %mem=28GB
 %nprocshared=12
 Will use up to   12 processors via shared memory.
 %chk=DMM3_1_opt_b3631gd.chk
 ---------------------------
 #p ub3lyp/6-31g(d) opt freq
 ---------------------------
 1/14=-1,18=20,19=15,26=3,38=1/1,3;
 2/9=110,12=2,17=6,18=5,40=1/2;
 3/5=1,6=6,7=1,11=2,16=1,25=1,30=1,71=1,74=-5,116=2/1,2,3;
 4//1;
 5/5=2,38=5/2;
 6/7=2,8=2,9=2,10=2,28=1/1;
 7//1,2,3,16;
 1/14=-1,18=20,19=15/3(2);
 2/9=110/2;
 99//99;
 2/9=110/2;
 3/5=1,6=6,7=1,11=2,16=1,25=1,30=1,71=1,74=-5,116=2/1,2,3;
 4/5=5,16=3/1;
 5/5=2,38=5/2;
 7//1,2,3,16;
 1/14=-1,18=20,19=15/3(-5);
 2/9=110/2;
 6/7=2,8=2,9=2,10=2,19=2,28=1/1;
 99/9=1/99;
 Leave Link    1 at Tue May 26 04:22:43 2015, MaxMem= 3758096384 cpu:       0.4
 (Enter /share/apps/g09/l101.exe)
 -------------------
 Title Card Required
 -------------------
 Symbolic Z-matrix:
 Charge =  0 Multiplicity = 1
 C                    -2.57953  -0.58086  -0.0076 
 H                    -2.22288  -1.58967  -0.0076 
 H                    -2.22286  -0.07646  -0.88126 
 H                    -3.64953  -0.58085  -0.0076 
 O                    -2.10285   0.09324   1.15999 
 C                    -2.57916   1.44158   1.16061 
 H                    -3.64916   1.44187   1.16076 
 H                    -2.22249   1.94625   0.28711 
 O                    -2.10215   2.11509   2.3284 
 C                    -2.57812   3.46355   2.32965 
 H                    -2.22144   3.96848   1.45631 
 H                    -3.64812   3.4641    2.32996 
 O                    -2.10077   4.13645   3.49765 
 C                    -2.5764    5.48503   3.49952 
 H                    -3.6464    5.48586   3.49803 
 H                    -2.21813   5.9908    2.62731 
 O                    -2.10084   6.15658   4.66903 
 C                    -2.57506   7.50566   4.67087 
 H                    -3.64505   7.50761   4.66886 
 H                    -2.21911   8.00765   5.5462 
 H                    -2.21583   8.01118   3.79891 
 
 NAtoms=     21 NQM=     21 NQMF=      0 NMic=      0 NMicF=      0 NTot=     21.
                    Isotopes and Nuclear Properties:
 (Nuclear quadrupole moments (NQMom) in fm**2, nuclear magnetic moments (NMagM)
  in nuclear magnetons)

  Atom         1           2           3           4           5           6           7           8           9          10
 IAtWgt=          12           1           1           1          16          12           1           1          16          12
 AtmWgt=  12.0000000   1.0078250   1.0078250   1.0078250  15.9949146  12.0000000   1.0078250   1.0078250  15.9949146  12.0000000
 NucSpn=           0           1           1           1           0           0           1           1           0           0
 AtZEff=   0.0000000   0.0000000   0.0000000   0.0000000   0.0000000   0.0000000   0.0000000   0.0000000   0.0000000   0.0000000
 NQMom=    0.0000000   0.0000000   0.0000000   0.0000000   0.0000000   0.0000000   0.0000000   0.0000000   0.0000000   0.0000000
 NMagM=    0.0000000   2.7928460   2.7928460   2.7928460   0.0000000   0.0000000   2.7928460   2.7928460   0.0000000   0.0000000

  Atom        11          12          13          14          15          16          17          18          19          20
 IAtWgt=           1           1          16          12           1           1          16          12           1           1
 AtmWgt=   1.0078250   1.0078250  15.9949146  12.0000000   1.0078250   1.0078250  15.9949146  12.0000000   1.0078250   1.0078250
 NucSpn=           1           1           0           0           1           1           0           0           1           1
 AtZEff=   0.0000000   0.0000000   0.0000000   0.0000000   0.0000000   0.0000000   0.0000000   0.0000000   0.0000000   0.0000000
 NQMom=    0.0000000   0.0000000   0.0000000   0.0000000   0.0000000   0.0000000   0.0000000   0.0000000   0.0000000   0.0000000
 NMagM=    2.7928460   2.7928460   0.0000000   0.0000000   2.7928460   2.7928460   0.0000000   0.0000000   2.7928460   2.7928460

  Atom        21
 IAtWgt=           1
 AtmWgt=   1.0078250
 NucSpn=           1
 AtZEff=   0.0000000
 NQMom=    0.0000000
 NMagM=    2.7928460
 Leave Link  101 at Tue May 26 04:22:43 2015, MaxMem= 3758096384 cpu:       0.6
 (Enter /share/apps/g09/l103.exe)

 GradGradGradGradGradGradGradGradGradGradGradGradGradGradGradGradGradGrad
 Berny optimization.
 Initialization pass.
                           ----------------------------
                           !    Initial Parameters    !
                           ! (Angstroms and Degrees)  !
 --------------------------                            --------------------------
 ! Name  Definition              Value          Derivative Info.                !
 --------------------------------------------------------------------------------
 ! R1    R(1,2)                  1.07           estimate D2E/DX2                !
 ! R2    R(1,3)                  1.07           estimate D2E/DX2                !
 ! R3    R(1,4)                  1.07           estimate D2E/DX2                !
 ! R4    R(1,5)                  1.43           estimate D2E/DX2                !
 ! R5    R(5,6)                  1.43           estimate D2E/DX2                !
 ! R6    R(6,7)                  1.07           estimate D2E/DX2                !
 ! R7    R(6,8)                  1.07           estimate D2E/DX2                !
 ! R8    R(6,9)                  1.43           estimate D2E/DX2                !
 ! R9    R(9,10)                 1.43           estimate D2E/DX2                !
 ! R10   R(10,11)                1.07           estimate D2E/DX2                !
 ! R11   R(10,12)                1.07           estimate D2E/DX2                !
 ! R12   R(10,13)                1.43           estimate D2E/DX2                !
 ! R13   R(13,14)                1.43           estimate D2E/DX2                !
 ! R14   R(14,15)                1.07           estimate D2E/DX2                !
 ! R15   R(14,16)                1.07           estimate D2E/DX2                !
 ! R16   R(14,17)                1.43           estimate D2E/DX2                !
 ! R17   R(17,18)                1.43           estimate D2E/DX2                !
 ! R18   R(18,19)                1.07           estimate D2E/DX2                !
 ! R19   R(18,20)                1.07           estimate D2E/DX2                !
 ! R20   R(18,21)                1.07           estimate D2E/DX2                !
 ! A1    A(2,1,3)              109.4712         estimate D2E/DX2                !
 ! A2    A(2,1,4)              109.4712         estimate D2E/DX2                !
 ! A3    A(2,1,5)              109.4712         estimate D2E/DX2                !
 ! A4    A(3,1,4)              109.4712         estimate D2E/DX2                !
 ! A5    A(3,1,5)              109.4713         estimate D2E/DX2                !
 ! A6    A(4,1,5)              109.4712         estimate D2E/DX2                !
 ! A7    A(1,5,6)              109.5            estimate D2E/DX2                !
 ! A8    A(5,6,7)              109.4712         estimate D2E/DX2                !
 ! A9    A(5,6,8)              109.4712         estimate D2E/DX2                !
 ! A10   A(5,6,9)              109.4712         estimate D2E/DX2                !
 ! A11   A(7,6,8)              109.4712         estimate D2E/DX2                !
 ! A12   A(7,6,9)              109.4713         estimate D2E/DX2                !
 ! A13   A(8,6,9)              109.4712         estimate D2E/DX2                !
 ! A14   A(6,9,10)             109.5            estimate D2E/DX2                !
 ! A15   A(9,10,11)            109.4712         estimate D2E/DX2                !
 ! A16   A(9,10,12)            109.4712         estimate D2E/DX2                !
 ! A17   A(9,10,13)            109.4712         estimate D2E/DX2                !
 ! A18   A(11,10,12)           109.4712         estimate D2E/DX2                !
 ! A19   A(11,10,13)           109.4713         estimate D2E/DX2                !
 ! A20   A(12,10,13)           109.4712         estimate D2E/DX2                !
 ! A21   A(10,13,14)           109.5            estimate D2E/DX2                !
 ! A22   A(13,14,15)           109.4712         estimate D2E/DX2                !
 ! A23   A(13,14,16)           109.4712         estimate D2E/DX2                !
 ! A24   A(13,14,17)           109.4712         estimate D2E/DX2                !
 ! A25   A(15,14,16)           109.4712         estimate D2E/DX2                !
 ! A26   A(15,14,17)           109.4713         estimate D2E/DX2                !
 ! A27   A(16,14,17)           109.4712         estimate D2E/DX2                !
 ! A28   A(14,17,18)           109.5            estimate D2E/DX2                !
 ! A29   A(17,18,19)           109.4712         estimate D2E/DX2                !
 ! A30   A(17,18,20)           109.4712         estimate D2E/DX2                !
 ! A31   A(17,18,21)           109.4712         estimate D2E/DX2                !
 ! A32   A(19,18,20)           109.4713         estimate D2E/DX2                !
 ! A33   A(19,18,21)           109.4712         estimate D2E/DX2                !
 ! A34   A(20,18,21)           109.4712         estimate D2E/DX2                !
 ! D1    D(2,1,5,6)            179.9999         estimate D2E/DX2                !
 ! D2    D(3,1,5,6)             59.9999         estimate D2E/DX2                !
 ! D3    D(4,1,5,6)            -60.0001         estimate D2E/DX2                !
 ! D4    D(1,5,6,7)             60.0            estimate D2E/DX2                !
 ! D5    D(1,5,6,8)            -60.0            estimate D2E/DX2                !
 ! D6    D(1,5,6,9)           -179.9999         estimate D2E/DX2                !
 ! D7    D(5,6,9,10)          -180.0            estimate D2E/DX2                !
 ! D8    D(7,6,9,10)           -60.0            estimate D2E/DX2                !
 ! D9    D(8,6,9,10)            60.0            estimate D2E/DX2                !
 ! D10   D(6,9,10,11)          -60.0001         estimate D2E/DX2                !
 ! D11   D(6,9,10,12)           59.9999         estimate D2E/DX2                !
 ! D12   D(6,9,10,13)          179.9999         estimate D2E/DX2                !
 ! D13   D(9,10,13,14)         179.9999         estimate D2E/DX2                !
 ! D14   D(11,10,13,14)         59.9999         estimate D2E/DX2                !
 ! D15   D(12,10,13,14)        -60.0001         estimate D2E/DX2                !
 ! D16   D(10,13,14,15)         59.889          estimate D2E/DX2                !
 ! D17   D(10,13,14,16)        -60.111          estimate D2E/DX2                !
 ! D18   D(10,13,14,17)        179.889          estimate D2E/DX2                !
 ! D19   D(13,14,17,18)        179.9439         estimate D2E/DX2                !
 ! D20   D(15,14,17,18)        -60.0561         estimate D2E/DX2                !
 ! D21   D(16,14,17,18)         59.9439         estimate D2E/DX2                !
 ! D22   D(14,17,18,19)         59.9898         estimate D2E/DX2                !
 ! D23   D(14,17,18,20)        179.9899         estimate D2E/DX2                !
 ! D24   D(14,17,18,21)        -60.0101         estimate D2E/DX2                !
 --------------------------------------------------------------------------------
 Trust Radius=3.00D-01 FncErr=1.00D-07 GrdErr=1.00D-06
 Number of steps in this run=  88 maximum allowed number of steps= 126.
 GradGradGradGradGradGradGradGradGradGradGradGradGradGradGradGradGradGrad

 Leave Link  103 at Tue May 26 04:22:43 2015, MaxMem= 3758096384 cpu:       0.1
 (Enter /share/apps/g09/l202.exe)
                          Input orientation:                          
 ---------------------------------------------------------------------
 Center     Atomic      Atomic             Coordinates (Angstroms)
 Number     Number       Type             X           Y           Z
 ---------------------------------------------------------------------
      1          6           0       -2.579530   -0.580863   -0.007604
      2          1           0       -2.222875   -1.589673   -0.007604
      3          1           0       -2.222857   -0.076465   -0.881255
      4          1           0       -3.649530   -0.580850   -0.007604
      5          8           0       -2.102855    0.093239    1.159986
      6          6           0       -2.579164    1.441582    1.160607
      7          1           0       -3.649164    1.441866    1.160762
      8          1           0       -2.222490    1.946248    0.287111
      9          8           0       -2.102149    2.115086    2.328404
     10          6           0       -2.578120    3.463548    2.329648
     11          1           0       -2.221444    3.968483    1.456308
     12          1           0       -3.648120    3.464100    2.329957
     13          8           0       -2.100769    4.136452    3.497654
     14          6           0       -2.576399    5.485033    3.499519
     15          1           0       -3.646397    5.485858    3.498028
     16          1           0       -2.218127    5.990798    2.627313
     17          8           0       -2.100842    6.156584    4.669034
     18          6           0       -2.575055    7.505664    4.670865
     19          1           0       -3.645051    7.507614    4.668860
     20          1           0       -2.219113    8.007652    5.546201
     21          1           0       -2.215832    8.011178    3.798905
 ---------------------------------------------------------------------
                    Distance matrix (angstroms):
                    1          2          3          4          5
     1  C    0.000000
     2  H    1.070000   0.000000
     3  H    1.070000   1.747302   0.000000
     4  H    1.070000   1.747303   1.747303   0.000000
     5  O    1.430000   2.051796   2.051796   2.051796   0.000000
     6  C    2.335595   3.268053   2.569168   2.569170   1.430000
     7  H    2.569169   3.548183   2.917107   2.335906   2.051796
     8  H    2.569169   3.548182   2.335904   2.917109   2.051796
     9  O    3.599023   4.381409   3.888365   3.888366   2.335180
    10  C    4.671190   5.578888   4.792474   4.792476   3.599023
    11  H    4.792475   5.747708   4.671810   4.987875   3.888366
    12  H    4.792474   5.747707   4.987871   4.671811   3.888365
    13  O    5.896533   6.714927   6.077698   6.077699   4.670360
    14  C    7.006784   7.904199   7.088472   7.088474   5.896533
    15  H    7.087508   8.023654   7.221083   7.006741   6.076949
    16  H    7.089438   8.025357   7.008692   7.223452   6.078449
    17  O    8.215429   9.049328   8.346945   8.346400   7.005538
    18  C    9.342378  10.234123   9.404189   9.403950   8.215430
    19  H    9.403622  10.327271   9.504981   9.343050   8.346467
    20  H   10.234122  11.088437  10.327883  10.327305   9.049328
    21  H    9.404518  10.327918   9.344192   9.506205   8.346880
                    6          7          8          9         10
     6  C    0.000000
     7  H    1.070000   0.000000
     8  H    1.070000   1.747303   0.000000
     9  O    1.430000   2.051796   2.051796   0.000000
    10  C    2.335595   2.569169   2.569169   1.430000   0.000000
    11  H    2.569169   2.917109   2.335906   2.051796   1.070000
    12  H    2.569168   2.335905   2.917107   2.051796   1.070000
    13  O    3.599023   3.888365   3.888366   2.335180   1.430000
    14  C    4.671190   4.792475   4.792475   3.599023   2.335595
    15  H    4.791523   4.670835   4.986616   3.887779   2.568281
    16  H    4.793427   4.989131   4.672788   3.888952   2.570057
    17  O    5.896532   6.077322   6.078073   4.670359   3.599022
    18  C    7.006784   7.088313   7.088632   5.896533   4.671189
    19  H    7.088067   7.007144   7.221647   6.077634   4.792152
    20  H    7.904198   8.024131   8.024878   6.714926   5.578887
    21  H    7.088879   7.222887   7.008289   6.077762   4.792797
                   11         12         13         14         15
    11  H    0.000000
    12  H    1.747303   0.000000
    13  O    2.051796   2.051796   0.000000
    14  C    2.569169   2.569169   1.430000   0.000000
    15  H    2.915740   2.334930   2.051796   1.070000   0.000000
    16  H    2.336883   2.918476   2.051796   1.070000   1.747303
    17  O    3.888951   3.887778   2.335180   1.430000   2.051796
    18  C    4.792710   4.792239   3.599023   2.335595   2.569618
    19  H    4.987243   4.671239   3.888607   2.569087   2.336310
    20  H    5.748227   5.747187   4.381409   3.268053   3.548464
    21  H    4.672384   4.988504   3.888122   2.569250   2.917924
                   16         17         18         19         20
    16  H    0.000000
    17  O    2.051796   0.000000
    18  C    2.568720   1.430000   0.000000
    19  H    2.916292   2.051796   1.070000   0.000000
    20  H    3.547902   2.051796   1.070000   1.747303   0.000000
    21  H    2.335501   2.051796   1.070000   1.747303   1.747303
                   21
    21  H    0.000000
 Stoichiometry    C5H12O4
 Framework group  C1[X(C5H12O4)]
 Deg. of freedom    57
 Full point group                 C1      NOp   1
 Largest Abelian subgroup         C1      NOp   1
 Largest concise Abelian subgroup C1      NOp   1
                         Standard orientation:                         
 ---------------------------------------------------------------------
 Center     Atomic      Atomic             Coordinates (Angstroms)
 Number     Number       Type             X           Y           Z
 ---------------------------------------------------------------------
      1          6           0        4.671189    0.288863   -0.000523
      2          1           0        5.544219   -0.329780   -0.000367
      3          1           0        4.671955    0.907053    0.872827
      4          1           0        4.671664    0.906202   -0.874475
      5          8           0        3.502769   -0.535574    0.000073
      6          6           0        2.335595    0.290624   -0.000133
      7          1           0        2.335759    0.907964   -0.874084
      8          1           0        2.336052    0.908814    0.873218
      9          8           0        1.167590   -0.534400    0.000465
     10          6           0        0.000000    0.291211    0.000259
     11          1           0        0.000146    0.909399    0.873611
     12          1           0       -0.000146    0.908552   -0.873692
     13          8           0       -1.167590   -0.534400    0.000854
     14          6           0       -2.335595    0.290624    0.000650
     15          1           0       -2.335075    0.909348   -0.872322
     16          1           0       -2.336736    0.907429    0.874979
     17          8           0       -3.502769   -0.535573   -0.001366
     18          6           0       -4.671189    0.288862   -0.000251
     19          1           0       -4.671385    0.908409   -0.872639
     20          1           0       -5.544218   -0.329779   -0.001938
     21          1           0       -4.672236    0.904842    0.874659
 ---------------------------------------------------------------------
 Rotational constants (GHZ):     12.9369259      0.3978298      0.3905497
 Leave Link  202 at Tue May 26 04:22:43 2015, MaxMem= 3758096384 cpu:       0.5
 (Enter /share/apps/g09/l301.exe)
 Standard basis: 6-31G(d) (6D, 7F)
 Ernie: Thresh=  0.10000D-02 Tol=  0.10000D-05 Strict=F.
 There are   159 symmetry adapted basis functions of A   symmetry.
 Integral buffers will be    131072 words long.
 Raffenetti 2 integral format.
 Two-electron integral symmetry is turned on.
   159 basis functions,   300 primitive gaussians,   159 cartesian basis functions
    37 alpha electrons       37 beta electrons
       nuclear repulsion energy       467.3565306025 Hartrees.
 IExCor=  402 DFT=T Ex+Corr=B3LYP ExCW=0 ScaHFX=  0.200000
 ScaDFX=  0.800000  0.720000  1.000000  0.810000 ScalE2=  1.000000  1.000000
 IRadAn=      0 IRanWt=     -1 IRanGd=            0 ICorTp=0
 NAtoms=   21 NActive=   21 NUniq=   21 SFac= 7.50D-01 NAtFMM=   80 NAOKFM=F Big=F
 Leave Link  301 at Tue May 26 04:22:45 2015, MaxMem= 3758096384 cpu:       0.4
 (Enter /share/apps/g09/l302.exe)
 NPDir=0 NMtPBC=     1 NCelOv=     1 NCel=       1 NClECP=     1 NCelD=      1
         NCelK=      1 NCelE2=     1 NClLst=     1 CellRange=     0.0.
 One-electron integrals computed using PRISM.
 NBasis=   159 RedAO= T  NBF=   159
 NBsUse=   159 1.00D-06 NBFU=   159
 Precomputing XC quadrature grid using
 IXCGrd= 2 IRadAn=           0 IRanWt=          -1 IRanGd=           0 AccXCQ= 1.00D-10.
 NRdTot=    1340 NPtTot=      171160 NUsed=      180826 NTot=      180858
 NSgBfM=   158   158   158   158   158 NAtAll=    21    21.
 Leave Link  302 at Tue May 26 04:22:45 2015, MaxMem= 3758096384 cpu:       5.4
 (Enter /share/apps/g09/l303.exe)
 DipDrv:  MaxL=1.
 Leave Link  303 at Tue May 26 04:22:45 2015, MaxMem= 3758096384 cpu:       0.7
 (Enter /share/apps/g09/l401.exe)
 Harris functional with IExCor=  402 diagonalized for initial guess.
 ExpMin= 1.61D-01 ExpMax= 5.48D+03 ExpMxC= 8.25D+02 IAcc=1 IRadAn=         1 AccDes= 0.00D+00
 HarFok:  IExCor=  402 AccDes= 0.00D+00 IRadAn=         1 IDoV= 1
 ScaDFX=  1.000000  1.000000  1.000000  1.000000
 FoFCou: FMM=F IPFlag=           0 FMFlag=      100000 FMFlg1=           0
         NFxFlg=           0 DoJE=T BraDBF=F KetDBF=T FulRan=T
         Omega=  0.000000  0.000000  1.000000  0.000000  0.000000 ICntrl=     500 IOpCl=  0
         NMat0=    1 NMatS0=    1 NMatT0=    0 NMatD0=    1 NMtDS0=    0 NMtDT0=    0
         I1Cent=           4 NGrid=           0.
 Petite list used in FoFCou.
 Harris En= -498.602508008615    
 Initial guess orbital symmetries:
 Alpha Orbitals:
       Occupied  (A) (A) (A) (A) (A) (A) (A) (A) (A) (A) (A) (A)
                 (A) (A) (A) (A) (A) (A) (A) (A) (A) (A) (A) (A)
                 (A) (A) (A) (A) (A) (A) (A) (A) (A) (A) (A) (A)
                 (A)
       Virtual   (A) (A) (A) (A) (A) (A) (A) (A) (A) (A) (A) (A)
                 (A) (A) (A) (A) (A) (A) (A) (A) (A) (A) (A) (A)
                 (A) (A) (A) (A) (A) (A) (A) (A) (A) (A) (A) (A)
                 (A) (A) (A) (A) (A) (A) (A) (A) (A) (A) (A) (A)
                 (A) (A) (A) (A) (A) (A) (A) (A) (A) (A) (A) (A)
                 (A) (A) (A) (A) (A) (A) (A) (A) (A) (A) (A) (A)
                 (A) (A) (A) (A) (A) (A) (A) (A) (A) (A) (A) (A)
                 (A) (A) (A) (A) (A) (A) (A) (A) (A) (A) (A) (A)
                 (A) (A) (A) (A) (A) (A) (A) (A) (A) (A) (A) (A)
                 (A) (A) (A) (A) (A) (A) (A) (A) (A) (A) (A) (A)
                 (A) (A)
 Beta  Orbitals:
       Occupied  (A) (A) (A) (A) (A) (A) (A) (A) (A) (A) (A) (A)
                 (A) (A) (A) (A) (A) (A) (A) (A) (A) (A) (A) (A)
                 (A) (A) (A) (A) (A) (A) (A) (A) (A) (A) (A) (A)
                 (A)
       Virtual   (A) (A) (A) (A) (A) (A) (A) (A) (A) (A) (A) (A)
                 (A) (A) (A) (A) (A) (A) (A) (A) (A) (A) (A) (A)
                 (A) (A) (A) (A) (A) (A) (A) (A) (A) (A) (A) (A)
                 (A) (A) (A) (A) (A) (A) (A) (A) (A) (A) (A) (A)
                 (A) (A) (A) (A) (A) (A) (A) (A) (A) (A) (A) (A)
                 (A) (A) (A) (A) (A) (A) (A) (A) (A) (A) (A) (A)
                 (A) (A) (A) (A) (A) (A) (A) (A) (A) (A) (A) (A)
                 (A) (A) (A) (A) (A) (A) (A) (A) (A) (A) (A) (A)
                 (A) (A) (A) (A) (A) (A) (A) (A) (A) (A) (A) (A)
                 (A) (A) (A) (A) (A) (A) (A) (A) (A) (A) (A) (A)
                 (A) (A)
 The electronic state of the initial guess is 1-A.
 Initial guess <Sx>= 0.0000 <Sy>= 0.0000 <Sz>= 0.0000 <S**2>= 0.0000 S= 0.0000
 Leave Link  401 at Tue May 26 04:22:46 2015, MaxMem= 3758096384 cpu:       4.5
 (Enter /share/apps/g09/l502.exe)
 UHF open shell SCF:
 Requested convergence on RMS density matrix=1.00D-08 within 128 cycles.
 Requested convergence on MAX density matrix=1.00D-06.
 Requested convergence on             energy=1.00D-06.
 No special actions if energy rises.
 Using DIIS extrapolation, IDIIS=  1040.
 Integral symmetry usage will be decided dynamically.
       180624 words used for storage of precomputed grid.
 Keep R1 and R2 ints in memory in canonical form, NReq=164136797.
 IEnd=      277736 IEndB=      277736 NGot=  3758096384 MDV=  3596049581
 LenX=  3596049581 LenY=  3596023859
 Symmetry not used in FoFDir.
 MinBra= 0 MaxBra= 2 Meth= 1.
 IRaf=       0 NMat=   1 IRICut=       1 DoRegI=T DoRafI=F ISym2E= 0 JSym2E=0.
 Integral accuracy reduced to 1.0D-05 until final iterations.

 Cycle   1  Pass 0  IDiag  1:
 E= -498.377148973868    
 DIIS: error= 3.49D-02 at cycle   1 NSaved=   1.
 NSaved= 1 IEnMin= 1 EnMin= -498.377148973868     IErMin= 1 ErrMin= 3.49D-02
 ErrMax= 3.49D-02 EMaxC= 1.00D-01 BMatC= 7.95D-01 BMatP= 7.95D-01
 IDIUse=3 WtCom= 6.51D-01 WtEn= 3.49D-01
 Coeff-Com:  0.100D+01
 Coeff-En:   0.100D+01
 Coeff:      0.100D+01
 Gap=     0.332 Goal=   None    Shift=    0.000
 Gap=     0.332 Goal=   None    Shift=    0.000
 GapD=    0.332 DampG=1.000 DampE=0.500 DampFc=0.5000 IDamp=-1.
 Damping current iteration by 5.00D-01
 RMSDP=6.80D-03 MaxDP=1.21D-01              OVMax= 1.46D-01

 Cycle   2  Pass 0  IDiag  1:
 E= -498.448677848639     Delta-E=       -0.071528874771 Rises=F Damp=T
 DIIS: error= 8.28D-03 at cycle   2 NSaved=   2.
 NSaved= 2 IEnMin= 2 EnMin= -498.448677848639     IErMin= 2 ErrMin= 8.28D-03
 ErrMax= 8.28D-03 EMaxC= 1.00D-01 BMatC= 7.17D-02 BMatP= 7.95D-01
 IDIUse=3 WtCom= 9.17D-01 WtEn= 8.28D-02
 Coeff-Com:  0.127D+00 0.873D+00
 Coeff-En:   0.184D+00 0.816D+00
 Coeff:      0.132D+00 0.868D+00
 Gap=     0.348 Goal=   None    Shift=    0.000
 Gap=     0.348 Goal=   None    Shift=    0.000
 RMSDP=1.32D-03 MaxDP=1.91D-02 DE=-7.15D-02 OVMax= 9.49D-02

 Cycle   3  Pass 0  IDiag  1:
 E= -498.549413265721     Delta-E=       -0.100735417082 Rises=F Damp=F
 DIIS: error= 7.36D-03 at cycle   3 NSaved=   3.
 NSaved= 3 IEnMin= 3 EnMin= -498.549413265721     IErMin= 3 ErrMin= 7.36D-03
 ErrMax= 7.36D-03 EMaxC= 1.00D-01 BMatC= 3.69D-02 BMatP= 7.17D-02
 IDIUse=3 WtCom= 9.26D-01 WtEn= 7.36D-02
 Coeff-Com: -0.370D-02 0.402D+00 0.602D+00
 Coeff-En:   0.000D+00 0.000D+00 0.100D+01
 Coeff:     -0.342D-02 0.373D+00 0.631D+00
 Gap=     0.328 Goal=   None    Shift=    0.000
 Gap=     0.328 Goal=   None    Shift=    0.000
 RMSDP=5.87D-04 MaxDP=1.18D-02 DE=-1.01D-01 OVMax= 1.81D-02

 Cycle   4  Pass 0  IDiag  1:
 E= -498.555432751308     Delta-E=       -0.006019485586 Rises=F Damp=F
 DIIS: error= 3.15D-03 at cycle   4 NSaved=   4.
 NSaved= 4 IEnMin= 4 EnMin= -498.555432751308     IErMin= 4 ErrMin= 3.15D-03
 ErrMax= 3.15D-03 EMaxC= 1.00D-01 BMatC= 6.52D-03 BMatP= 3.69D-02
 IDIUse=3 WtCom= 9.68D-01 WtEn= 3.15D-02
 Coeff-Com: -0.925D-02 0.818D-01 0.324D+00 0.603D+00
 Coeff-En:   0.000D+00 0.000D+00 0.140D+00 0.860D+00
 Coeff:     -0.895D-02 0.792D-01 0.318D+00 0.611D+00
 Gap=     0.330 Goal=   None    Shift=    0.000
 Gap=     0.330 Goal=   None    Shift=    0.000
 RMSDP=1.86D-04 MaxDP=5.45D-03 DE=-6.02D-03 OVMax= 6.15D-03

 Cycle   5  Pass 0  IDiag  1:
 E= -498.556751397472     Delta-E=       -0.001318646164 Rises=F Damp=F
 DIIS: error= 4.25D-04 at cycle   5 NSaved=   5.
 NSaved= 5 IEnMin= 5 EnMin= -498.556751397472     IErMin= 5 ErrMin= 4.25D-04
 ErrMax= 4.25D-04 EMaxC= 1.00D-01 BMatC= 8.86D-05 BMatP= 6.52D-03
 IDIUse=3 WtCom= 9.96D-01 WtEn= 4.25D-03
 Coeff-Com: -0.170D-02 0.973D-02 0.782D-01 0.201D+00 0.712D+00
 Coeff-En:   0.000D+00 0.000D+00 0.000D+00 0.000D+00 0.100D+01
 Coeff:     -0.170D-02 0.969D-02 0.779D-01 0.200D+00 0.714D+00
 Gap=     0.330 Goal=   None    Shift=    0.000
 Gap=     0.330 Goal=   None    Shift=    0.000
 RMSDP=2.93D-05 MaxDP=7.30D-04 DE=-1.32D-03 OVMax= 8.89D-04

 Cycle   6  Pass 0  IDiag  1:
 E= -498.556768435179     Delta-E=       -0.000017037707 Rises=F Damp=F
 DIIS: error= 1.34D-04 at cycle   6 NSaved=   6.
 NSaved= 6 IEnMin= 6 EnMin= -498.556768435179     IErMin= 6 ErrMin= 1.34D-04
 ErrMax= 1.34D-04 EMaxC= 1.00D-01 BMatC= 1.06D-05 BMatP= 8.86D-05
 IDIUse=3 WtCom= 9.99D-01 WtEn= 1.34D-03
 Coeff-Com: -0.360D-03 0.157D-03 0.219D-01 0.692D-01 0.356D+00 0.553D+00
 Coeff-En:   0.000D+00 0.000D+00 0.000D+00 0.000D+00 0.000D+00 0.100D+01
 Coeff:     -0.359D-03 0.157D-03 0.219D-01 0.691D-01 0.355D+00 0.554D+00
 Gap=     0.330 Goal=   None    Shift=    0.000
 Gap=     0.330 Goal=   None    Shift=    0.000
 RMSDP=1.12D-05 MaxDP=2.54D-04 DE=-1.70D-05 OVMax= 2.49D-04

 Cycle   7  Pass 0  IDiag  1:
 E= -498.556770957492     Delta-E=       -0.000002522313 Rises=F Damp=F
 DIIS: error= 1.17D-05 at cycle   7 NSaved=   7.
 NSaved= 7 IEnMin= 7 EnMin= -498.556770957492     IErMin= 7 ErrMin= 1.17D-05
 ErrMax= 1.17D-05 EMaxC= 1.00D-01 BMatC= 9.24D-08 BMatP= 1.06D-05
 IDIUse=1 WtCom= 1.00D+00 WtEn= 0.00D+00
 Coeff-Com: -0.622D-04-0.197D-03 0.307D-02 0.113D-01 0.658D-01 0.142D+00
 Coeff-Com:  0.778D+00
 Coeff:     -0.622D-04-0.197D-03 0.307D-02 0.113D-01 0.658D-01 0.142D+00
 Coeff:      0.778D+00
 Gap=     0.330 Goal=   None    Shift=    0.000
 Gap=     0.330 Goal=   None    Shift=    0.000
 RMSDP=1.23D-06 MaxDP=2.22D-05 DE=-2.52D-06 OVMax= 3.09D-05

 Initial convergence to 1.0D-05 achieved.  Increase integral accuracy.
 Cycle   8  Pass 1  IDiag  1:
 E= -498.556912363360     Delta-E=       -0.000141405868 Rises=F Damp=F
 DIIS: error= 2.10D-05 at cycle   1 NSaved=   1.
 NSaved= 1 IEnMin= 1 EnMin= -498.556912363360     IErMin= 1 ErrMin= 2.10D-05
 ErrMax= 2.10D-05 EMaxC= 1.00D-01 BMatC= 1.67D-07 BMatP= 1.67D-07
 IDIUse=1 WtCom= 1.00D+00 WtEn= 0.00D+00
 Coeff-Com:  0.100D+01
 Coeff:      0.100D+01
 Gap=     0.330 Goal=   None    Shift=    0.000
 Gap=     0.330 Goal=   None    Shift=    0.000
 RMSDP=1.23D-06 MaxDP=2.22D-05 DE=-1.41D-04 OVMax= 4.80D-05

 Cycle   9  Pass 1  IDiag  1:
 E= -498.556912375676     Delta-E=       -0.000000012315 Rises=F Damp=F
 DIIS: error= 1.64D-05 at cycle   2 NSaved=   2.
 NSaved= 2 IEnMin= 2 EnMin= -498.556912375676     IErMin= 2 ErrMin= 1.64D-05
 ErrMax= 1.64D-05 EMaxC= 1.00D-01 BMatC= 1.38D-07 BMatP= 1.67D-07
 IDIUse=1 WtCom= 1.00D+00 WtEn= 0.00D+00
 Coeff-Com:  0.470D+00 0.530D+00
 Coeff:      0.470D+00 0.530D+00
 Gap=     0.330 Goal=   None    Shift=    0.000
 Gap=     0.330 Goal=   None    Shift=    0.000
 RMSDP=1.32D-06 MaxDP=3.35D-05 DE=-1.23D-08 OVMax= 3.50D-05

 Cycle  10  Pass 1  IDiag  1:
 E= -498.556912397348     Delta-E=       -0.000000021672 Rises=F Damp=F
 DIIS: error= 6.90D-06 at cycle   3 NSaved=   3.
 NSaved= 3 IEnMin= 3 EnMin= -498.556912397348     IErMin= 3 ErrMin= 6.90D-06
 ErrMax= 6.90D-06 EMaxC= 1.00D-01 BMatC= 2.16D-08 BMatP= 1.38D-07
 IDIUse=1 WtCom= 1.00D+00 WtEn= 0.00D+00
 Coeff-Com: -0.120D-01 0.279D+00 0.733D+00
 Coeff:     -0.120D-01 0.279D+00 0.733D+00
 Gap=     0.330 Goal=   None    Shift=    0.000
 Gap=     0.330 Goal=   None    Shift=    0.000
 RMSDP=3.95D-07 MaxDP=1.07D-05 DE=-2.17D-08 OVMax= 1.03D-05

 Cycle  11  Pass 1  IDiag  1:
 E= -498.556912401175     Delta-E=       -0.000000003827 Rises=F Damp=F
 DIIS: error= 8.33D-07 at cycle   4 NSaved=   4.
 NSaved= 4 IEnMin= 4 EnMin= -498.556912401175     IErMin= 4 ErrMin= 8.33D-07
 ErrMax= 8.33D-07 EMaxC= 1.00D-01 BMatC= 5.49D-10 BMatP= 2.16D-08
 IDIUse=1 WtCom= 1.00D+00 WtEn= 0.00D+00
 Coeff-Com: -0.127D-01 0.129D+00 0.364D+00 0.520D+00
 Coeff:     -0.127D-01 0.129D+00 0.364D+00 0.520D+00
 Gap=     0.330 Goal=   None    Shift=    0.000
 Gap=     0.330 Goal=   None    Shift=    0.000
 RMSDP=6.72D-08 MaxDP=3.11D-06 DE=-3.83D-09 OVMax= 2.18D-06

 Cycle  12  Pass 1  IDiag  1:
 E= -498.556912401297     Delta-E=       -0.000000000122 Rises=F Damp=F
 DIIS: error= 1.33D-07 at cycle   5 NSaved=   5.
 NSaved= 5 IEnMin= 5 EnMin= -498.556912401297     IErMin= 5 ErrMin= 1.33D-07
 ErrMax= 1.33D-07 EMaxC= 1.00D-01 BMatC= 1.54D-11 BMatP= 5.49D-10
 IDIUse=1 WtCom= 1.00D+00 WtEn= 0.00D+00
 Coeff-Com: -0.403D-02 0.288D-01 0.875D-01 0.196D+00 0.692D+00
 Coeff:     -0.403D-02 0.288D-01 0.875D-01 0.196D+00 0.692D+00
 Gap=     0.330 Goal=   None    Shift=    0.000
 Gap=     0.330 Goal=   None    Shift=    0.000
 RMSDP=1.20D-08 MaxDP=3.84D-07 DE=-1.22D-10 OVMax= 3.25D-07

 Cycle  13  Pass 1  IDiag  1:
 E= -498.556912401300     Delta-E=       -0.000000000003 Rises=F Damp=F
 DIIS: error= 4.48D-08 at cycle   6 NSaved=   6.
 NSaved= 6 IEnMin= 6 EnMin= -498.556912401300     IErMin= 6 ErrMin= 4.48D-08
 ErrMax= 4.48D-08 EMaxC= 1.00D-01 BMatC= 1.52D-12 BMatP= 1.54D-11
 IDIUse=1 WtCom= 1.00D+00 WtEn= 0.00D+00
 Coeff-Com: -0.103D-02 0.501D-02 0.170D-01 0.591D-01 0.317D+00 0.603D+00
 Coeff:     -0.103D-02 0.501D-02 0.170D-01 0.591D-01 0.317D+00 0.603D+00
 Gap=     0.330 Goal=   None    Shift=    0.000
 Gap=     0.330 Goal=   None    Shift=    0.000
 RMSDP=5.07D-09 MaxDP=9.30D-08 DE=-2.61D-12 OVMax= 1.17D-07

 SCF Done:  E(UB3LYP) =  -498.556912401     A.U. after   13 cycles
             Convg  =    0.5071D-08             -V/T =  2.0084
 <Sx>= 0.0000 <Sy>= 0.0000 <Sz>= 0.0000 <S**2>= 0.0000 S= 0.0000
 <L.S>= 0.000000000000E+00
 KE= 4.944108818106D+02 PE=-2.101498875584D+03 EE= 6.411745507700D+02
 Annihilation of the first spin contaminant:
 S**2 before annihilation     0.0000,   after     0.0000
 Leave Link  502 at Tue May 26 04:23:00 2015, MaxMem= 3758096384 cpu:     156.1
 (Enter /share/apps/g09/l601.exe)
 Copying SCF densities to generalized density rwf, IOpCl= 1 IROHF=0.

 **********************************************************************

            Population analysis using the SCF density.

 **********************************************************************

 Orbital symmetries:
 Alpha Orbitals:
       Occupied  (A) (A) (A) (A) (A) (A) (A) (A) (A) (A) (A) (A)
                 (A) (A) (A) (A) (A) (A) (A) (A) (A) (A) (A) (A)
                 (A) (A) (A) (A) (A) (A) (A) (A) (A) (A) (A) (A)
                 (A)
       Virtual   (A) (A) (A) (A) (A) (A) (A) (A) (A) (A) (A) (A)
                 (A) (A) (A) (A) (A) (A) (A) (A) (A) (A) (A) (A)
                 (A) (A) (A) (A) (A) (A) (A) (A) (A) (A) (A) (A)
                 (A) (A) (A) (A) (A) (A) (A) (A) (A) (A) (A) (A)
                 (A) (A) (A) (A) (A) (A) (A) (A) (A) (A) (A) (A)
                 (A) (A) (A) (A) (A) (A) (A) (A) (A) (A) (A) (A)
                 (A) (A) (A) (A) (A) (A) (A) (A) (A) (A) (A) (A)
                 (A) (A) (A) (A) (A) (A) (A) (A) (A) (A) (A) (A)
                 (A) (A) (A) (A) (A) (A) (A) (A) (A) (A) (A) (A)
                 (A) (A) (A) (A) (A) (A) (A) (A) (A) (A) (A) (A)
                 (A) (A)
 Beta  Orbitals:
       Occupied  (A) (A) (A) (A) (A) (A) (A) (A) (A) (A) (A) (A)
                 (A) (A) (A) (A) (A) (A) (A) (A) (A) (A) (A) (A)
                 (A) (A) (A) (A) (A) (A) (A) (A) (A) (A) (A) (A)
                 (A)
       Virtual   (A) (A) (A) (A) (A) (A) (A) (A) (A) (A) (A) (A)
                 (A) (A) (A) (A) (A) (A) (A) (A) (A) (A) (A) (A)
                 (A) (A) (A) (A) (A) (A) (A) (A) (A) (A) (A) (A)
                 (A) (A) (A) (A) (A) (A) (A) (A) (A) (A) (A) (A)
                 (A) (A) (A) (A) (A) (A) (A) (A) (A) (A) (A) (A)
                 (A) (A) (A) (A) (A) (A) (A) (A) (A) (A) (A) (A)
                 (A) (A) (A) (A) (A) (A) (A) (A) (A) (A) (A) (A)
                 (A) (A) (A) (A) (A) (A) (A) (A) (A) (A) (A) (A)
                 (A) (A) (A) (A) (A) (A) (A) (A) (A) (A) (A) (A)
                 (A) (A) (A) (A) (A) (A) (A) (A) (A) (A) (A) (A)
                 (A) (A)
 The electronic state is 1-A.
 Alpha  occ. eigenvalues --  -19.16181 -19.16181 -19.15526 -19.15526 -10.28982
 Alpha  occ. eigenvalues --  -10.28480 -10.28480 -10.22899 -10.22899  -1.07549
 Alpha  occ. eigenvalues --   -1.05217  -1.02258  -0.99650  -0.74168  -0.71387
 Alpha  occ. eigenvalues --   -0.67302  -0.64934  -0.64647  -0.52695  -0.52455
 Alpha  occ. eigenvalues --   -0.51950  -0.50251  -0.48619  -0.47386  -0.47002
 Alpha  occ. eigenvalues --   -0.43263  -0.43071  -0.41779  -0.41453  -0.37910
 Alpha  occ. eigenvalues --   -0.34800  -0.32934  -0.32798  -0.28998  -0.26855
 Alpha  occ. eigenvalues --   -0.25801  -0.25792
 Alpha virt. eigenvalues --    0.07231   0.08640   0.09534   0.10563   0.10738
 Alpha virt. eigenvalues --    0.13681   0.15189   0.15771   0.16014   0.16184
 Alpha virt. eigenvalues --    0.17025   0.17566   0.19397   0.19604   0.20216
 Alpha virt. eigenvalues --    0.22293   0.22316   0.22583   0.24816   0.29541
 Alpha virt. eigenvalues --    0.47392   0.49183   0.51485   0.52632   0.54316
 Alpha virt. eigenvalues --    0.55503   0.55507   0.56670   0.57089   0.60477
 Alpha virt. eigenvalues --    0.61073   0.62667   0.65682   0.65742   0.77105
 Alpha virt. eigenvalues --    0.78016   0.80621   0.82636   0.84108   0.85047
 Alpha virt. eigenvalues --    0.85444   0.86653   0.88015   0.88844   0.89147
 Alpha virt. eigenvalues --    0.93308   0.93908   0.94354   0.95732   0.97414
 Alpha virt. eigenvalues --    0.98462   1.00278   1.02507   1.04669   1.07643
 Alpha virt. eigenvalues --    1.11942   1.15775   1.18757   1.22414   1.22902
 Alpha virt. eigenvalues --    1.34742   1.36221   1.37826   1.38884   1.39649
 Alpha virt. eigenvalues --    1.39910   1.42211   1.47409   1.48331   1.48340
 Alpha virt. eigenvalues --    1.49951   1.59463   1.60197   1.62889   1.67648
 Alpha virt. eigenvalues --    1.75176   1.79510   1.92332   1.96397   1.99647
 Alpha virt. eigenvalues --    1.99677   2.01176   2.01504   2.03734   2.04793
 Alpha virt. eigenvalues --    2.04890   2.07342   2.07679   2.10185   2.13386
 Alpha virt. eigenvalues --    2.15451   2.16134   2.18428   2.19729   2.24086
 Alpha virt. eigenvalues --    2.28880   2.32101   2.32316   2.39017   2.39170
 Alpha virt. eigenvalues --    2.41106   2.49457   2.54144   2.56234   2.63870
 Alpha virt. eigenvalues --    2.65930   2.67463   2.67554   2.76381   2.89421
 Alpha virt. eigenvalues --    2.96215   3.07589   3.13265   3.76253   3.88322
 Alpha virt. eigenvalues --    4.07690   4.21284   4.23401   4.24910   4.29295
 Alpha virt. eigenvalues --    4.34000   4.39827
  Beta  occ. eigenvalues --  -19.16181 -19.16181 -19.15526 -19.15526 -10.28982
  Beta  occ. eigenvalues --  -10.28480 -10.28480 -10.22899 -10.22899  -1.07549
  Beta  occ. eigenvalues --   -1.05217  -1.02258  -0.99650  -0.74168  -0.71387
  Beta  occ. eigenvalues --   -0.67302  -0.64934  -0.64647  -0.52695  -0.52455
  Beta  occ. eigenvalues --   -0.51950  -0.50251  -0.48619  -0.47386  -0.47002
  Beta  occ. eigenvalues --   -0.43263  -0.43071  -0.41779  -0.41453  -0.37910
  Beta  occ. eigenvalues --   -0.34800  -0.32934  -0.32798  -0.28998  -0.26855
  Beta  occ. eigenvalues --   -0.25801  -0.25792
  Beta virt. eigenvalues --    0.07231   0.08640   0.09534   0.10563   0.10738
  Beta virt. eigenvalues --    0.13681   0.15189   0.15771   0.16014   0.16184
  Beta virt. eigenvalues --    0.17025   0.17566   0.19397   0.19604   0.20216
  Beta virt. eigenvalues --    0.22293   0.22316   0.22583   0.24816   0.29541
  Beta virt. eigenvalues --    0.47392   0.49183   0.51485   0.52632   0.54316
  Beta virt. eigenvalues --    0.55503   0.55507   0.56670   0.57089   0.60477
  Beta virt. eigenvalues --    0.61073   0.62667   0.65682   0.65742   0.77105
  Beta virt. eigenvalues --    0.78016   0.80621   0.82636   0.84108   0.85047
  Beta virt. eigenvalues --    0.85444   0.86653   0.88015   0.88844   0.89147
  Beta virt. eigenvalues --    0.93308   0.93908   0.94354   0.95732   0.97414
  Beta virt. eigenvalues --    0.98462   1.00278   1.02507   1.04669   1.07643
  Beta virt. eigenvalues --    1.11942   1.15775   1.18757   1.22414   1.22902
  Beta virt. eigenvalues --    1.34742   1.36221   1.37826   1.38884   1.39649
  Beta virt. eigenvalues --    1.39910   1.42211   1.47409   1.48331   1.48340
  Beta virt. eigenvalues --    1.49951   1.59463   1.60197   1.62889   1.67648
  Beta virt. eigenvalues --    1.75176   1.79510   1.92332   1.96397   1.99647
  Beta virt. eigenvalues --    1.99677   2.01176   2.01504   2.03734   2.04793
  Beta virt. eigenvalues --    2.04890   2.07342   2.07679   2.10185   2.13386
  Beta virt. eigenvalues --    2.15451   2.16134   2.18428   2.19729   2.24086
  Beta virt. eigenvalues --    2.28880   2.32101   2.32316   2.39017   2.39170
  Beta virt. eigenvalues --    2.41106   2.49457   2.54144   2.56234   2.63870
  Beta virt. eigenvalues --    2.65930   2.67463   2.67554   2.76381   2.89421
  Beta virt. eigenvalues --    2.96215   3.07589   3.13265   3.76253   3.88322
  Beta virt. eigenvalues --    4.07690   4.21284   4.23401   4.24910   4.29295
  Beta virt. eigenvalues --    4.34000   4.39827
          Condensed to atoms (all electrons):
              1          2          3          4          5          6
     1  C    4.871701   0.390974   0.366651   0.366651   0.252116  -0.034464
     2  H    0.390974   0.524282  -0.033414  -0.033414  -0.027747   0.005300
     3  H    0.366651  -0.033414   0.615665  -0.051830  -0.040244  -0.009828
     4  H    0.366651  -0.033414  -0.051830   0.615662  -0.040243  -0.009828
     5  O    0.252116  -0.027747  -0.040244  -0.040243   8.175048   0.269989
     6  C   -0.034464   0.005300  -0.009828  -0.009828   0.269989   4.625265
     7  H   -0.004752  -0.000247  -0.003433   0.015543  -0.045219   0.347746
     8  H   -0.004752  -0.000247   0.015543  -0.003433  -0.045219   0.347744
     9  O    0.002797  -0.000059  -0.000099  -0.000099  -0.031001   0.257367
    10  C   -0.000116   0.000001   0.000009   0.000009   0.002252  -0.020644
    11  H    0.000011   0.000000  -0.000001  -0.000001  -0.000124  -0.006370
    12  H    0.000011   0.000000  -0.000001  -0.000001  -0.000124  -0.006370
    13  O    0.000000   0.000000   0.000000   0.000000  -0.000007   0.002222
    14  C    0.000000   0.000000   0.000000   0.000000   0.000000  -0.000076
    15  H    0.000000   0.000000   0.000000   0.000000   0.000000   0.000012
    16  H    0.000000   0.000000   0.000000   0.000000   0.000000   0.000012
    17  O    0.000000   0.000000   0.000000   0.000000   0.000000   0.000000
    18  C    0.000000   0.000000   0.000000   0.000000   0.000000   0.000000
    19  H    0.000000   0.000000   0.000000   0.000000   0.000000   0.000000
    20  H    0.000000   0.000000   0.000000   0.000000   0.000000   0.000000
    21  H    0.000000   0.000000   0.000000   0.000000   0.000000   0.000000
              7          8          9         10         11         12
     1  C   -0.004752  -0.004752   0.002797  -0.000116   0.000011   0.000011
     2  H   -0.000247  -0.000247  -0.000059   0.000001   0.000000   0.000000
     3  H   -0.003433   0.015543  -0.000099   0.000009  -0.000001  -0.000001
     4  H    0.015543  -0.003433  -0.000099   0.000009  -0.000001  -0.000001
     5  O   -0.045219  -0.045219  -0.031001   0.002252  -0.000124  -0.000124
     6  C    0.347746   0.347744   0.257367  -0.020644  -0.006370  -0.006370
     7  H    0.700012  -0.084959  -0.044938  -0.006644  -0.003812   0.015223
     8  H   -0.084959   0.700017  -0.044938  -0.006644   0.015224  -0.003812
     9  O   -0.044938  -0.044938   8.195058   0.260482  -0.044638  -0.044619
    10  C   -0.006644  -0.006644   0.260482   4.616963   0.348466   0.348470
    11  H   -0.003812   0.015224  -0.044638   0.348466   0.696548  -0.084793
    12  H    0.015223  -0.003812  -0.044619   0.348470  -0.084793   0.696450
    13  O   -0.000121  -0.000121  -0.030377   0.260482  -0.044633  -0.044624
    14  C    0.000012   0.000012   0.002222  -0.020644  -0.006352  -0.006387
    15  H   -0.000005   0.000000  -0.000121  -0.006647  -0.003822   0.015250
    16  H    0.000000  -0.000005  -0.000122  -0.006641   0.015197  -0.003801
    17  O    0.000000   0.000000  -0.000007   0.002252  -0.000125  -0.000124
    18  C    0.000000   0.000000   0.000000  -0.000116   0.000012   0.000011
    19  H    0.000000   0.000000   0.000000   0.000009  -0.000001  -0.000001
    20  H    0.000000   0.000000   0.000000   0.000001   0.000000   0.000000
    21  H    0.000000   0.000000   0.000000   0.000008  -0.000001  -0.000001
             13         14         15         16         17         18
     1  C    0.000000   0.000000   0.000000   0.000000   0.000000   0.000000
     2  H    0.000000   0.000000   0.000000   0.000000   0.000000   0.000000
     3  H    0.000000   0.000000   0.000000   0.000000   0.000000   0.000000
     4  H    0.000000   0.000000   0.000000   0.000000   0.000000   0.000000
     5  O   -0.000007   0.000000   0.000000   0.000000   0.000000   0.000000
     6  C    0.002222  -0.000076   0.000012   0.000012   0.000000   0.000000
     7  H   -0.000121   0.000012  -0.000005   0.000000   0.000000   0.000000
     8  H   -0.000121   0.000012   0.000000  -0.000005   0.000000   0.000000
     9  O   -0.030377   0.002222  -0.000121  -0.000122  -0.000007   0.000000
    10  C    0.260482  -0.020644  -0.006647  -0.006641   0.002252  -0.000116
    11  H   -0.044633  -0.006352  -0.003822   0.015197  -0.000125   0.000012
    12  H   -0.044624  -0.006387   0.015250  -0.003801  -0.000124   0.000011
    13  O    8.195058   0.257367  -0.044942  -0.044934  -0.031001   0.002797
    14  C    0.257367   4.625266   0.347716   0.347774   0.269989  -0.034464
    15  H   -0.044942   0.347716   0.700051  -0.084959  -0.045205  -0.004755
    16  H   -0.044934   0.347774  -0.084959   0.699978  -0.045233  -0.004748
    17  O   -0.031001   0.269989  -0.045205  -0.045233   8.175048   0.252116
    18  C    0.002797  -0.034464  -0.004755  -0.004748   0.252116   4.871701
    19  H   -0.000099  -0.009825   0.015534  -0.003438  -0.040244   0.366647
    20  H   -0.000059   0.005300  -0.000247  -0.000246  -0.027747   0.390974
    21  H   -0.000098  -0.009831  -0.003429   0.015552  -0.040243   0.366655
             19         20         21
     1  C    0.000000   0.000000   0.000000
     2  H    0.000000   0.000000   0.000000
     3  H    0.000000   0.000000   0.000000
     4  H    0.000000   0.000000   0.000000
     5  O    0.000000   0.000000   0.000000
     6  C    0.000000   0.000000   0.000000
     7  H    0.000000   0.000000   0.000000
     8  H    0.000000   0.000000   0.000000
     9  O    0.000000   0.000000   0.000000
    10  C    0.000009   0.000001   0.000008
    11  H   -0.000001   0.000000  -0.000001
    12  H   -0.000001   0.000000  -0.000001
    13  O   -0.000099  -0.000059  -0.000098
    14  C   -0.009825   0.005300  -0.009831
    15  H    0.015534  -0.000247  -0.003429
    16  H   -0.003438  -0.000246   0.015552
    17  O   -0.040244  -0.027747  -0.040243
    18  C    0.366647   0.390974   0.366655
    19  H    0.615698  -0.033418  -0.051830
    20  H   -0.033418   0.524282  -0.033410
    21  H   -0.051830  -0.033410   0.615628
 Mulliken atomic charges:
              1
     1  C   -0.206830
     2  H    0.174571
     3  H    0.140983
     4  H    0.140985
     5  O   -0.469476
     6  C    0.231923
     7  H    0.115594
     8  H    0.115590
     9  O   -0.476913
    10  C    0.228691
    11  H    0.119214
    12  H    0.119242
    13  O   -0.476913
    14  C    0.231923
    15  H    0.115569
    16  H    0.115615
    17  O   -0.469476
    18  C   -0.206830
    19  H    0.140968
    20  H    0.174571
    21  H    0.141000
 Sum of Mulliken atomic charges =   0.00000
 Mulliken charges with hydrogens summed into heavy atoms:
              1
     1  C    0.249709
     5  O   -0.469476
     6  C    0.463106
     9  O   -0.476913
    10  C    0.467147
    13  O   -0.476913
    14  C    0.463106
    17  O   -0.469476
    18  C    0.249709
 Sum of Mulliken charges with hydrogens summed into heavy atoms =   0.00000
          Atomic-Atomic Spin Densities.
              1          2          3          4          5          6
     1  C    0.000000   0.000000   0.000000   0.000000   0.000000   0.000000
     2  H    0.000000   0.000000   0.000000   0.000000   0.000000   0.000000
     3  H    0.000000   0.000000   0.000000   0.000000   0.000000   0.000000
     4  H    0.000000   0.000000   0.000000   0.000000   0.000000   0.000000
     5  O    0.000000   0.000000   0.000000   0.000000   0.000000   0.000000
     6  C    0.000000   0.000000   0.000000   0.000000   0.000000   0.000000
     7  H    0.000000   0.000000   0.000000   0.000000   0.000000   0.000000
     8  H    0.000000   0.000000   0.000000   0.000000   0.000000   0.000000
     9  O    0.000000   0.000000   0.000000   0.000000   0.000000   0.000000
    10  C    0.000000   0.000000   0.000000   0.000000   0.000000   0.000000
    11  H    0.000000   0.000000   0.000000   0.000000   0.000000   0.000000
    12  H    0.000000   0.000000   0.000000   0.000000   0.000000   0.000000
    13  O    0.000000   0.000000   0.000000   0.000000   0.000000   0.000000
    14  C    0.000000   0.000000   0.000000   0.000000   0.000000   0.000000
    15  H    0.000000   0.000000   0.000000   0.000000   0.000000   0.000000
    16  H    0.000000   0.000000   0.000000   0.000000   0.000000   0.000000
    17  O    0.000000   0.000000   0.000000   0.000000   0.000000   0.000000
    18  C    0.000000   0.000000   0.000000   0.000000   0.000000   0.000000
    19  H    0.000000   0.000000   0.000000   0.000000   0.000000   0.000000
    20  H    0.000000   0.000000   0.000000   0.000000   0.000000   0.000000
    21  H    0.000000   0.000000   0.000000   0.000000   0.000000   0.000000
              7          8          9         10         11         12
     1  C    0.000000   0.000000   0.000000   0.000000   0.000000   0.000000
     2  H    0.000000   0.000000   0.000000   0.000000   0.000000   0.000000
     3  H    0.000000   0.000000   0.000000   0.000000   0.000000   0.000000
     4  H    0.000000   0.000000   0.000000   0.000000   0.000000   0.000000
     5  O    0.000000   0.000000   0.000000   0.000000   0.000000   0.000000
     6  C    0.000000   0.000000   0.000000   0.000000   0.000000   0.000000
     7  H    0.000000   0.000000   0.000000   0.000000   0.000000   0.000000
     8  H    0.000000   0.000000   0.000000   0.000000   0.000000   0.000000
     9  O    0.000000   0.000000   0.000000   0.000000   0.000000   0.000000
    10  C    0.000000   0.000000   0.000000   0.000000   0.000000   0.000000
    11  H    0.000000   0.000000   0.000000   0.000000   0.000000   0.000000
    12  H    0.000000   0.000000   0.000000   0.000000   0.000000   0.000000
    13  O    0.000000   0.000000   0.000000   0.000000   0.000000   0.000000
    14  C    0.000000   0.000000   0.000000   0.000000   0.000000   0.000000
    15  H    0.000000   0.000000   0.000000   0.000000   0.000000   0.000000
    16  H    0.000000   0.000000   0.000000   0.000000   0.000000   0.000000
    17  O    0.000000   0.000000   0.000000   0.000000   0.000000   0.000000
    18  C    0.000000   0.000000   0.000000   0.000000   0.000000   0.000000
    19  H    0.000000   0.000000   0.000000   0.000000   0.000000   0.000000
    20  H    0.000000   0.000000   0.000000   0.000000   0.000000   0.000000
    21  H    0.000000   0.000000   0.000000   0.000000   0.000000   0.000000
             13         14         15         16         17         18
     1  C    0.000000   0.000000   0.000000   0.000000   0.000000   0.000000
     2  H    0.000000   0.000000   0.000000   0.000000   0.000000   0.000000
     3  H    0.000000   0.000000   0.000000   0.000000   0.000000   0.000000
     4  H    0.000000   0.000000   0.000000   0.000000   0.000000   0.000000
     5  O    0.000000   0.000000   0.000000   0.000000   0.000000   0.000000
     6  C    0.000000   0.000000   0.000000   0.000000   0.000000   0.000000
     7  H    0.000000   0.000000   0.000000   0.000000   0.000000   0.000000
     8  H    0.000000   0.000000   0.000000   0.000000   0.000000   0.000000
     9  O    0.000000   0.000000   0.000000   0.000000   0.000000   0.000000
    10  C    0.000000   0.000000   0.000000   0.000000   0.000000   0.000000
    11  H    0.000000   0.000000   0.000000   0.000000   0.000000   0.000000
    12  H    0.000000   0.000000   0.000000   0.000000   0.000000   0.000000
    13  O    0.000000   0.000000   0.000000   0.000000   0.000000   0.000000
    14  C    0.000000   0.000000   0.000000   0.000000   0.000000   0.000000
    15  H    0.000000   0.000000   0.000000   0.000000   0.000000   0.000000
    16  H    0.000000   0.000000   0.000000   0.000000   0.000000   0.000000
    17  O    0.000000   0.000000   0.000000   0.000000   0.000000   0.000000
    18  C    0.000000   0.000000   0.000000   0.000000   0.000000   0.000000
    19  H    0.000000   0.000000   0.000000   0.000000   0.000000   0.000000
    20  H    0.000000   0.000000   0.000000   0.000000   0.000000   0.000000
    21  H    0.000000   0.000000   0.000000   0.000000   0.000000   0.000000
             19         20         21
     1  C    0.000000   0.000000   0.000000
     2  H    0.000000   0.000000   0.000000
     3  H    0.000000   0.000000   0.000000
     4  H    0.000000   0.000000   0.000000
     5  O    0.000000   0.000000   0.000000
     6  C    0.000000   0.000000   0.000000
     7  H    0.000000   0.000000   0.000000
     8  H    0.000000   0.000000   0.000000
     9  O    0.000000   0.000000   0.000000
    10  C    0.000000   0.000000   0.000000
    11  H    0.000000   0.000000   0.000000
    12  H    0.000000   0.000000   0.000000
    13  O    0.000000   0.000000   0.000000
    14  C    0.000000   0.000000   0.000000
    15  H    0.000000   0.000000   0.000000
    16  H    0.000000   0.000000   0.000000
    17  O    0.000000   0.000000   0.000000
    18  C    0.000000   0.000000   0.000000
    19  H    0.000000   0.000000   0.000000
    20  H    0.000000   0.000000   0.000000
    21  H    0.000000   0.000000   0.000000
 Mulliken atomic spin densities:
              1
     1  C    0.000000
     2  H    0.000000
     3  H    0.000000
     4  H    0.000000
     5  O    0.000000
     6  C    0.000000
     7  H    0.000000
     8  H    0.000000
     9  O    0.000000
    10  C    0.000000
    11  H    0.000000
    12  H    0.000000
    13  O    0.000000
    14  C    0.000000
    15  H    0.000000
    16  H    0.000000
    17  O    0.000000
    18  C    0.000000
    19  H    0.000000
    20  H    0.000000
    21  H    0.000000
 Sum of Mulliken atomic spin densities =   0.00000
 Electronic spatial extent (au):  <R**2>=           2768.1589
 Charge=              0.0000 electrons
 Dipole moment (field-independent basis, Debye):
    X=              0.0000    Y=              5.4211    Z=              0.0004  Tot=              5.4211
 Quadrupole moment (field-independent basis, Debye-Ang):
   XX=            -38.0609   YY=            -57.8864   ZZ=            -54.6879
   XY=              0.0000   XZ=             -0.0116   YZ=              0.0001
 Traceless Quadrupole moment (field-independent basis, Debye-Ang):
   XX=             12.1509   YY=             -7.6747   ZZ=             -4.4762
   XY=              0.0000   XZ=             -0.0116   YZ=              0.0001
 Octapole moment (field-independent basis, Debye-Ang**2):
  XXX=              0.0000  YYY=             -5.8991  ZZZ=              0.0024  XYY=              0.0000
  XXY=             30.7883  XXZ=              0.0050  XZZ=              0.0000  YZZ=             -0.7155
  YYZ=             -0.0013  XYZ=              0.0053
 Hexadecapole moment (field-independent basis, Debye-Ang**3):
 XXXX=          -2610.6334 YYYY=           -140.7798 ZZZZ=            -83.2361 XXXY=              0.0002
 XXXZ=             -0.0612 YYYX=              0.0000 YYYZ=             -0.0018 ZZZX=             -0.0043
 ZZZY=              0.0007 XXYY=           -588.9330 XXZZ=           -564.1789 YYZZ=            -36.4939
 XXYZ=             -0.0049 YYXZ=              0.0136 ZZXY=              0.0000
 N-N= 4.673565306025D+02 E-N=-3.152248332523D+03  KE= 7.416163227158D+02
                          Isotropic Fermi Contact Couplings
        Atom                 a.u.       MegaHertz       Gauss      10(-4) cm-1
     1  C(13)              0.00000       0.00000       0.00000       0.00000
     2  H(1)               0.00000       0.00000       0.00000       0.00000
     3  H(1)               0.00000       0.00000       0.00000       0.00000
     4  H(1)               0.00000       0.00000       0.00000       0.00000
     5  O(17)              0.00000       0.00000       0.00000       0.00000
     6  C(13)              0.00000       0.00000       0.00000       0.00000
     7  H(1)               0.00000       0.00000       0.00000       0.00000
     8  H(1)               0.00000       0.00000       0.00000       0.00000
     9  O(17)              0.00000       0.00000       0.00000       0.00000
    10  C(13)              0.00000       0.00000       0.00000       0.00000
    11  H(1)               0.00000       0.00000       0.00000       0.00000
    12  H(1)               0.00000       0.00000       0.00000       0.00000
    13  O(17)              0.00000       0.00000       0.00000       0.00000
    14  C(13)              0.00000       0.00000       0.00000       0.00000
    15  H(1)               0.00000       0.00000       0.00000       0.00000
    16  H(1)               0.00000       0.00000       0.00000       0.00000
    17  O(17)              0.00000       0.00000       0.00000       0.00000
    18  C(13)              0.00000       0.00000       0.00000       0.00000
    19  H(1)               0.00000       0.00000       0.00000       0.00000
    20  H(1)               0.00000       0.00000       0.00000       0.00000
    21  H(1)               0.00000       0.00000       0.00000       0.00000
 --------------------------------------------------------
       Center         ----  Spin Dipole Couplings  ----
                      3XX-RR        3YY-RR        3ZZ-RR
 --------------------------------------------------------
     1   Atom        0.000000      0.000000      0.000000
     2   Atom        0.000000      0.000000      0.000000
     3   Atom        0.000000      0.000000      0.000000
     4   Atom        0.000000      0.000000      0.000000
     5   Atom        0.000000      0.000000      0.000000
     6   Atom        0.000000      0.000000      0.000000
     7   Atom        0.000000      0.000000      0.000000
     8   Atom        0.000000      0.000000      0.000000
     9   Atom        0.000000      0.000000      0.000000
    10   Atom        0.000000      0.000000      0.000000
    11   Atom        0.000000      0.000000      0.000000
    12   Atom        0.000000      0.000000      0.000000
    13   Atom        0.000000      0.000000      0.000000
    14   Atom        0.000000      0.000000      0.000000
    15   Atom        0.000000      0.000000      0.000000
    16   Atom        0.000000      0.000000      0.000000
    17   Atom        0.000000      0.000000      0.000000
    18   Atom        0.000000      0.000000      0.000000
    19   Atom        0.000000      0.000000      0.000000
    20   Atom        0.000000      0.000000      0.000000
    21   Atom        0.000000      0.000000      0.000000
 --------------------------------------------------------
                        XY            XZ            YZ
 --------------------------------------------------------
     1   Atom        0.000000      0.000000      0.000000
     2   Atom        0.000000      0.000000      0.000000
     3   Atom        0.000000      0.000000      0.000000
     4   Atom        0.000000      0.000000      0.000000
     5   Atom        0.000000      0.000000      0.000000
     6   Atom        0.000000      0.000000      0.000000
     7   Atom        0.000000      0.000000      0.000000
     8   Atom        0.000000      0.000000      0.000000
     9   Atom        0.000000      0.000000      0.000000
    10   Atom        0.000000      0.000000      0.000000
    11   Atom        0.000000      0.000000      0.000000
    12   Atom        0.000000      0.000000      0.000000
    13   Atom        0.000000      0.000000      0.000000
    14   Atom        0.000000      0.000000      0.000000
    15   Atom        0.000000      0.000000      0.000000
    16   Atom        0.000000      0.000000      0.000000
    17   Atom        0.000000      0.000000      0.000000
    18   Atom        0.000000      0.000000      0.000000
    19   Atom        0.000000      0.000000      0.000000
    20   Atom        0.000000      0.000000      0.000000
    21   Atom        0.000000      0.000000      0.000000
 --------------------------------------------------------


 ---------------------------------------------------------------------------------
              Anisotropic Spin Dipole Couplings in Principal Axis System
 ---------------------------------------------------------------------------------

       Atom             a.u.   MegaHertz   Gauss  10(-4) cm-1        Axes

              Baa     0.0000     0.000     0.000     0.000  1.0000  0.0000  0.0000
     1 C(13)  Bbb     0.0000     0.000     0.000     0.000  0.0000  1.0000  0.0000
              Bcc     0.0000     0.000     0.000     0.000  0.0000  0.0000  1.0000
 
              Baa     0.0000     0.000     0.000     0.000  1.0000  0.0000  0.0000
     2 H(1)   Bbb     0.0000     0.000     0.000     0.000  0.0000  1.0000  0.0000
              Bcc     0.0000     0.000     0.000     0.000  0.0000  0.0000  1.0000
 
              Baa     0.0000     0.000     0.000     0.000  1.0000  0.0000  0.0000
     3 H(1)   Bbb     0.0000     0.000     0.000     0.000  0.0000  1.0000  0.0000
              Bcc     0.0000     0.000     0.000     0.000  0.0000  0.0000  1.0000
 
              Baa     0.0000     0.000     0.000     0.000  1.0000  0.0000  0.0000
     4 H(1)   Bbb     0.0000     0.000     0.000     0.000  0.0000  1.0000  0.0000
              Bcc     0.0000     0.000     0.000     0.000  0.0000  0.0000  1.0000
 
              Baa     0.0000     0.000     0.000     0.000  1.0000  0.0000  0.0000
     5 O(17)  Bbb     0.0000     0.000     0.000     0.000  0.0000  1.0000  0.0000
              Bcc     0.0000     0.000     0.000     0.000  0.0000  0.0000  1.0000
 
              Baa     0.0000     0.000     0.000     0.000  1.0000  0.0000  0.0000
     6 C(13)  Bbb     0.0000     0.000     0.000     0.000  0.0000  1.0000  0.0000
              Bcc     0.0000     0.000     0.000     0.000  0.0000  0.0000  1.0000
 
              Baa     0.0000     0.000     0.000     0.000  1.0000  0.0000  0.0000
     7 H(1)   Bbb     0.0000     0.000     0.000     0.000  0.0000  1.0000  0.0000
              Bcc     0.0000     0.000     0.000     0.000  0.0000  0.0000  1.0000
 
              Baa     0.0000     0.000     0.000     0.000  1.0000  0.0000  0.0000
     8 H(1)   Bbb     0.0000     0.000     0.000     0.000  0.0000  1.0000  0.0000
              Bcc     0.0000     0.000     0.000     0.000  0.0000  0.0000  1.0000
 
              Baa     0.0000     0.000     0.000     0.000  1.0000  0.0000  0.0000
     9 O(17)  Bbb     0.0000     0.000     0.000     0.000  0.0000  1.0000  0.0000
              Bcc     0.0000     0.000     0.000     0.000  0.0000  0.0000  1.0000
 
              Baa     0.0000     0.000     0.000     0.000  1.0000  0.0000  0.0000
    10 C(13)  Bbb     0.0000     0.000     0.000     0.000  0.0000  1.0000  0.0000
              Bcc     0.0000     0.000     0.000     0.000  0.0000  0.0000  1.0000
 
              Baa     0.0000     0.000     0.000     0.000  1.0000  0.0000  0.0000
    11 H(1)   Bbb     0.0000     0.000     0.000     0.000  0.0000  1.0000  0.0000
              Bcc     0.0000     0.000     0.000     0.000  0.0000  0.0000  1.0000
 
              Baa     0.0000     0.000     0.000     0.000  1.0000  0.0000  0.0000
    12 H(1)   Bbb     0.0000     0.000     0.000     0.000  0.0000  1.0000  0.0000
              Bcc     0.0000     0.000     0.000     0.000  0.0000  0.0000  1.0000
 
              Baa     0.0000     0.000     0.000     0.000  1.0000  0.0000  0.0000
    13 O(17)  Bbb     0.0000     0.000     0.000     0.000  0.0000  1.0000  0.0000
              Bcc     0.0000     0.000     0.000     0.000  0.0000  0.0000  1.0000
 
              Baa     0.0000     0.000     0.000     0.000  1.0000  0.0000  0.0000
    14 C(13)  Bbb     0.0000     0.000     0.000     0.000  0.0000  1.0000  0.0000
              Bcc     0.0000     0.000     0.000     0.000  0.0000  0.0000  1.0000
 
              Baa     0.0000     0.000     0.000     0.000  1.0000  0.0000  0.0000
    15 H(1)   Bbb     0.0000     0.000     0.000     0.000  0.0000  1.0000  0.0000
              Bcc     0.0000     0.000     0.000     0.000  0.0000  0.0000  1.0000
 
              Baa     0.0000     0.000     0.000     0.000  1.0000  0.0000  0.0000
    16 H(1)   Bbb     0.0000     0.000     0.000     0.000  0.0000  1.0000  0.0000
              Bcc     0.0000     0.000     0.000     0.000  0.0000  0.0000  1.0000
 
              Baa     0.0000     0.000     0.000     0.000  1.0000  0.0000  0.0000
    17 O(17)  Bbb     0.0000     0.000     0.000     0.000  0.0000  1.0000  0.0000
              Bcc     0.0000     0.000     0.000     0.000  0.0000  0.0000  1.0000
 
              Baa     0.0000     0.000     0.000     0.000  1.0000  0.0000  0.0000
    18 C(13)  Bbb     0.0000     0.000     0.000     0.000  0.0000  1.0000  0.0000
              Bcc     0.0000     0.000     0.000     0.000  0.0000  0.0000  1.0000
 
              Baa     0.0000     0.000     0.000     0.000  1.0000  0.0000  0.0000
    19 H(1)   Bbb     0.0000     0.000     0.000     0.000  0.0000  1.0000  0.0000
              Bcc     0.0000     0.000     0.000     0.000  0.0000  0.0000  1.0000
 
              Baa     0.0000     0.000     0.000     0.000  1.0000  0.0000  0.0000
    20 H(1)   Bbb     0.0000     0.000     0.000     0.000  0.0000  1.0000  0.0000
              Bcc     0.0000     0.000     0.000     0.000  0.0000  0.0000  1.0000
 
              Baa     0.0000     0.000     0.000     0.000  1.0000  0.0000  0.0000
    21 H(1)   Bbb     0.0000     0.000     0.000     0.000  0.0000  1.0000  0.0000
              Bcc     0.0000     0.000     0.000     0.000  0.0000  0.0000  1.0000
 

 ---------------------------------------------------------------------------------

 No NMR shielding tensors so no spin-rotation constants.
 Leave Link  601 at Tue May 26 04:23:01 2015, MaxMem= 3758096384 cpu:       7.3
 (Enter /share/apps/g09/l701.exe)
 Compute integral first derivatives.
 ... and contract with generalized density number  0.
 Leave Link  701 at Tue May 26 04:23:01 2015, MaxMem= 3758096384 cpu:       6.4
 (Enter /share/apps/g09/l702.exe)
 L702 exits ... SP integral derivatives will be done elsewhere.
 Leave Link  702 at Tue May 26 04:23:01 2015, MaxMem= 3758096384 cpu:       0.2
 (Enter /share/apps/g09/l703.exe)
 Compute integral first derivatives, UseDBF=F ICtDFT=           0.
 Integral derivatives from FoFDir, PRISM(SPDF).
 Calling FoFJK, ICntrl=      2127 FMM=F ISym2X=0 I1Cent= 0 IOpClX= 1 NMat=1 NMatS=1 NMatT=0.
 FoFCou: FMM=F IPFlag=           0 FMFlag=      100000 FMFlg1=         800
         NFxFlg=           0 DoJE=F BraDBF=F KetDBF=F FulRan=T
         Omega=  0.000000  0.000000  1.000000  0.000000  0.000000 ICntrl=    2127 IOpCl=  1
         NMat0=    1 NMatS0=    1 NMatT0=    0 NMatD0=    1 NMtDS0=    0 NMtDT0=    0
         I1Cent=           0 NGrid=           0.
 Symmetry not used in FoFCou.
 Leave Link  703 at Tue May 26 04:23:04 2015, MaxMem= 3758096384 cpu:      30.3
 (Enter /share/apps/g09/l716.exe)
 Dipole        =-3.41766057D-07 2.13282919D+00 1.68769546D-04
 ***** Axes restored to original set *****
 -------------------------------------------------------------------
 Center     Atomic                   Forces (Hartrees/Bohr)
 Number     Number              X              Y              Z
 -------------------------------------------------------------------
      1        6           0.007233553    0.015744071    0.020902218
      2        1           0.007477919   -0.013305957    0.004529608
      3        1           0.005474951    0.007047594   -0.019802117
      4        1          -0.021315571   -0.002423968   -0.003396526
      5        8          -0.002411842    0.015279415    0.004882049
      6        6           0.022302980   -0.018175543    0.025926771
      7        1          -0.024446854    0.000063107   -0.000634478
      8        1           0.007601369    0.011393230   -0.020260121
      9        8          -0.004186865    0.004628507   -0.004168992
     10        6           0.021205082   -0.015027158    0.025953612
     11        1           0.007527766    0.011494423   -0.019885238
     12        1          -0.024162146    0.000294033   -0.000474651
     13        8          -0.004208229    0.001303659   -0.006076707
     14        6           0.022257512   -0.013452695    0.028698390
     15        1          -0.024447551    0.000546110   -0.000400098
     16        1           0.007638064    0.011884207   -0.019959893
     17        8          -0.002409808   -0.011840217   -0.010821950
     18        6           0.007193577   -0.025980100   -0.003223616
     19        1          -0.021309299    0.004192186    0.000370480
     20        1           0.007456349    0.002688464    0.013807957
     21        1           0.005529042    0.013646630   -0.015966698
 -------------------------------------------------------------------
 Cartesian Forces:  Max     0.028698390 RMS     0.014038891
 Leave Link  716 at Tue May 26 04:23:04 2015, MaxMem= 3758096384 cpu:       0.2
 (Enter /share/apps/g09/l103.exe)

 GradGradGradGradGradGradGradGradGradGradGradGradGradGradGradGradGradGrad
 Berny optimization.
 Internal  Forces:  Max     0.024448478 RMS     0.011573111
 Search for a local minimum.
 Step number   1 out of a maximum of   88
 All quantities printed in internal units (Hartrees-Bohrs-Radians)
 RMS Force = .11573D-01 SwitMx=.10000D-02 MixMth= 1
 Mixed Optimization -- RFO/linear search
 Second derivative matrix not updated -- first step.
     Eigenvalues ---    0.01295   0.01295   0.01295   0.01295   0.01295
     Eigenvalues ---    0.01295   0.01295   0.01295   0.08215   0.08215
     Eigenvalues ---    0.08215   0.09617   0.09617   0.09617   0.10344
     Eigenvalues ---    0.10344   0.10344   0.10344   0.11990   0.11990
     Eigenvalues ---    0.11990   0.14366   0.14366   0.14366   0.16000
     Eigenvalues ---    0.16000   0.16000   0.16000   0.16000   0.16000
     Eigenvalues ---    0.22220   0.22220   0.22220   0.25000   0.25000
     Eigenvalues ---    0.25000   0.25000   0.37230   0.37230   0.37230
     Eigenvalues ---    0.37230   0.37230   0.37230   0.37230   0.37230
     Eigenvalues ---    0.37230   0.37230   0.37230   0.37230   0.40989
     Eigenvalues ---    0.40989   0.40989   0.40989   0.40989   0.40989
     Eigenvalues ---    0.40989   0.409891000.000001000.000001000.00000
     Eigenvalues --- 1000.000001000.000001000.000001000.000001000.00000
     Eigenvalues --- 1000.000001000.000001000.000001000.000001000.00000
     Eigenvalues --- 1000.000001000.000001000.000001000.000001000.00000
     Eigenvalues --- 1000.000001000.000001000.00000
 RFO step:  Lambda=-2.95849659D-02 EMin= 1.29493625D-02
 Linear search not attempted -- first point.
 Maximum step size (   0.300) exceeded in Quadratic search.
    -- Step size scaled by   0.987
 Iteration  1 RMS(Cart)=  0.19122645 RMS(Int)=  0.00914752
 Iteration  2 RMS(Cart)=  0.03192843 RMS(Int)=  0.00039146
 Iteration  3 RMS(Cart)=  0.00037855 RMS(Int)=  0.00033441
 Iteration  4 RMS(Cart)=  0.00000012 RMS(Int)=  0.00033441
 Variable       Old X    -DE/DX   Delta X   Delta X   Delta X     New X
                                 (Linear)    (Quad)   (Total)
    R1        2.02201   0.01504   0.00000   0.03693   0.03693   2.05894
    R2        2.02201   0.02132   0.00000   0.05235   0.05235   2.07436
    R3        2.02201   0.02132   0.00000   0.05235   0.05235   2.07436
    R4        2.70231  -0.00478   0.00000  -0.01073  -0.01073   2.69158
    R5        2.70231  -0.02225   0.00000  -0.04997  -0.04997   2.65234
    R6        2.02201   0.02445   0.00000   0.06004   0.06004   2.08205
    R7        2.02201   0.02445   0.00000   0.06004   0.06004   2.08205
    R8        2.70231  -0.01792   0.00000  -0.04024  -0.04024   2.66207
    R9        2.70231  -0.01986   0.00000  -0.04460  -0.04460   2.65771
   R10        2.02201   0.02416   0.00000   0.05934   0.05934   2.08135
   R11        2.02201   0.02416   0.00000   0.05934   0.05934   2.08135
   R12        2.70231  -0.01986   0.00000  -0.04460  -0.04460   2.65771
   R13        2.70231  -0.01792   0.00000  -0.04024  -0.04024   2.66207
   R14        2.02201   0.02445   0.00000   0.06004   0.06004   2.08205
   R15        2.02201   0.02445   0.00000   0.06004   0.06004   2.08204
   R16        2.70231  -0.02225   0.00000  -0.04997  -0.04997   2.65234
   R17        2.70231  -0.00478   0.00000  -0.01073  -0.01073   2.69158
   R18        2.02201   0.02132   0.00000   0.05235   0.05235   2.07436
   R19        2.02201   0.01504   0.00000   0.03693   0.03693   2.05894
   R20        2.02201   0.02132   0.00000   0.05235   0.05235   2.07436
    A1        1.91063  -0.00026   0.00000  -0.00520  -0.00497   1.90567
    A2        1.91063  -0.00026   0.00000  -0.00520  -0.00497   1.90567
    A3        1.91063  -0.01083   0.00000  -0.06026  -0.06002   1.85061
    A4        1.91063  -0.00260   0.00000  -0.00579  -0.00680   1.90383
    A5        1.91063   0.00697   0.00000   0.03823   0.03777   1.94840
    A6        1.91063   0.00697   0.00000   0.03823   0.03777   1.94840
    A7        1.91114   0.00384   0.00000   0.01357   0.01357   1.92470
    A8        1.91063   0.00489   0.00000   0.01677   0.01664   1.92728
    A9        1.91063   0.00489   0.00000   0.01677   0.01664   1.92728
   A10        1.91063  -0.01962   0.00000  -0.07917  -0.07922   1.83141
   A11        1.91063  -0.00085   0.00000   0.00603   0.00554   1.91618
   A12        1.91063   0.00535   0.00000   0.01980   0.01959   1.93022
   A13        1.91063   0.00535   0.00000   0.01980   0.01959   1.93023
   A14        1.91114   0.00336   0.00000   0.01186   0.01186   1.92300
   A15        1.91063   0.00546   0.00000   0.01947   0.01927   1.92990
   A16        1.91063   0.00547   0.00000   0.01950   0.01930   1.92993
   A17        1.91063  -0.02101   0.00000  -0.08486  -0.08492   1.82571
   A18        1.91063  -0.00085   0.00000   0.00693   0.00637   1.91701
   A19        1.91063   0.00547   0.00000   0.01950   0.01930   1.92994
   A20        1.91063   0.00546   0.00000   0.01946   0.01926   1.92990
   A21        1.91114   0.00336   0.00000   0.01186   0.01186   1.92300
   A22        1.91063   0.00535   0.00000   0.01981   0.01960   1.93024
   A23        1.91063   0.00534   0.00000   0.01979   0.01958   1.93021
   A24        1.91063  -0.01962   0.00000  -0.07917  -0.07922   1.83141
   A25        1.91063  -0.00085   0.00000   0.00603   0.00554   1.91618
   A26        1.91063   0.00489   0.00000   0.01676   0.01663   1.92726
   A27        1.91063   0.00489   0.00000   0.01678   0.01665   1.92729
   A28        1.91114   0.00384   0.00000   0.01357   0.01357   1.92470
   A29        1.91063   0.00697   0.00000   0.03823   0.03777   1.94841
   A30        1.91063  -0.01083   0.00000  -0.06026  -0.06002   1.85061
   A31        1.91063   0.00697   0.00000   0.03823   0.03777   1.94840
   A32        1.91063  -0.00026   0.00000  -0.00521  -0.00497   1.90566
   A33        1.91063  -0.00260   0.00000  -0.00579  -0.00680   1.90383
   A34        1.91063  -0.00026   0.00000  -0.00520  -0.00496   1.90567
    D1        3.14159   0.00000   0.00000   0.00000   0.00000   3.14159
    D2        1.04720   0.00268   0.00000   0.01987   0.02085   1.06805
    D3       -1.04720  -0.00268   0.00000  -0.01987  -0.02085  -1.06805
    D4        1.04720   0.00247   0.00000   0.01396   0.01407   1.06127
    D5       -1.04720  -0.00247   0.00000  -0.01397  -0.01408  -1.06127
    D6       -3.14159   0.00000   0.00000  -0.00001  -0.00001   3.14159
    D7       -3.14159   0.00000   0.00000   0.00000   0.00000  -3.14159
    D8       -1.04720  -0.00275   0.00000  -0.01582  -0.01605  -1.06325
    D9        1.04720   0.00275   0.00000   0.01582   0.01605   1.06325
   D10       -1.04720  -0.00282   0.00000  -0.01617  -0.01637  -1.06357
   D11        1.04720   0.00283   0.00000   0.01618   0.01637   1.06357
   D12        3.14159   0.00000   0.00000  -0.00001  -0.00001   3.14158
   D13        3.14159   0.00000   0.00000  -0.00003  -0.00003   3.14156
   D14        1.04720   0.00282   0.00000   0.01615   0.01635   1.06355
[...]
 0.00147184,0.00528983,0.00164823,0.00485833,-0.04537590,-0.01650754,0.
 00395894,0.00508871,0.00533029,0.00084433,0.00525091,0.00825034,0.0555
 2040,-0.21424770,0.00777797,0.00511267,0.53135325,-0.00010300,-0.00188
 540,0.00036535,-0.00014393,-0.00010767,-0.00024055,0.00019427,0.000139
 64,0.00013594,0.00011979,0.00000439,0.00008434,-0.00152303,-0.00005520
 ,-0.00425322,0.01077317,-0.03613621,-0.00629496,0.00005725,-0.00051015
 ,-0.00015141,-0.00027530,-0.00281333,-0.00170536,-0.02191957,0.0380853
 1,-0.08438788,-0.00890886,-0.01814779,0.55225304,-0.00015346,-0.000126
 32,0.00008234,-0.00000309,0.00001358,-0.00000342,0.00003374,0.00002148
 ,0.00001152,0.00002410,0.00000538,-0.00000016,0.00006487,0.00027193,-0
 .00008266,-0.00001926,-0.00040403,-0.00149805,-0.00001851,0.00017265,0
 .00050279,-0.00005221,-0.00045119,0.00005463,0.01019535,0.01217243,-0.
 01245631,-0.09626047,-0.04034393,0.06979195,0.08846881,0.00019127,0.00
 022050,0.00022714,0.00001137,-0.00008112,-0.00004753,-0.00000335,-0.00
 010812,-0.00016925,-0.00004132,-0.00001817,-0.00004565,0.00012265,-0.0
 0057275,-0.00143276,0.00161121,0.00340104,0.00967878,-0.00033562,-0.00
 035939,-0.00077347,0.00030193,0.00043695,-0.00244547,-0.00457514,-0.03
 768478,0.02357753,-0.03781122,-0.09826959,0.07729461,0.03826998,0.1170
 5733,0.00002940,0.00010017,-0.00011615,0.00000011,0.00002549,0.0000230
 9,-0.00001706,0.00000687,0.00001524,-0.00000675,-0.00000512,0.00001169
 ,-0.00000871,-0.00033939,0.00050021,-0.00053203,-0.00142766,0.00027859
 ,0.00043656,-0.00004317,0.00005803,0.00029029,0.00160249,0.00103599,-0
 .00352257,0.00796919,0.00372297,0.06541450,0.07729808,-0.18728636,-0.0
 6618795,-0.09002560,0.22071565,-0.00019171,-0.00004245,-0.00012123,0.0
 0001033,0.00005965,0.00003348,0.00002220,0.00000834,0.00002115,0.00005
 674,0.00007775,0.00003921,0.00098182,0.00027959,0.00045736,-0.00149096
 ,-0.00273967,-0.00364681,0.00098762,0.00156177,0.00144404,-0.00001087,
 -0.00011138,0.00056907,-0.01132896,0.01764944,0.00049809,-0.26601205,-
 0.00760008,0.01338312,-0.01235397,-0.00197502,0.00343535,0.30035466,-0
 .00011304,0.00014741,0.00033318,0.00000217,-0.00006977,-0.00002598,-0.
 00000325,-0.00000345,-0.00006181,-0.00006179,-0.00011173,-0.00011875,-
 0.00051677,-0.00091047,-0.00065257,0.00559368,0.00416555,0.00616425,-0
 .00205069,0.00018722,-0.00029068,-0.00047197,-0.00050885,-0.00066498,0
 .04134905,-0.01683551,-0.00459954,-0.01013209,-0.05573585,0.00374550,-
 0.01539021,0.00471315,0.00275129,0.00055870,0.06397309,0.00007440,0.00
 005651,-0.00000473,-0.00000452,-0.00000144,-0.00000168,-0.00000593,-0.
 00000706,-0.00000116,-0.00002716,-0.00002618,-0.00000415,-0.00016267,-
 0.00020050,-0.00007937,0.00136300,0.00035302,0.00098611,-0.00044317,0.
 00033648,0.00024508,0.00013352,0.00002509,0.00019993,-0.00442016,-0.00
 035505,0.00440385,0.01776163,0.00374283,-0.06006556,0.02662685,0.00273
 566,0.00153455,-0.00123982,0.00178690,0.06192121,-0.00019112,0.0001324
 1,-0.00008259,0.00001361,0.00003200,0.00004540,0.00000153,0.00000198,-
 0.00001517,0.00005258,0.00004472,0.00000218,0.00094976,0.00033203,0.00
 050389,-0.00239878,0.00150026,-0.00033606,0.00096642,0.00053274,0.0004
 1160,0.00008986,0.00000271,-0.00003962,0.01130306,0.00538024,0.0127747
 8,-0.10368777,-0.00868405,-0.05917399,0.01019888,0.00531896,0.00217958
 ,-0.01139008,-0.01677505,-0.03806038,0.17790608,0.00102895,0.00093371,
 0.00227546,-0.00000193,-0.00053406,-0.00030990,-0.00007174,0.00000687,
 -0.00039869,-0.00028119,-0.00005836,-0.00025339,-0.00006372,-0.0051495
 7,-0.00351573,0.00333203,0.00064716,0.00678237,-0.00046311,-0.00081432
 ,-0.00082480,-0.00001864,-0.00073549,-0.00144531,-0.01383946,-0.046899
 32,-0.05281687,-0.02723551,-0.09680741,-0.05967001,0.00472547,0.007059
 83,-0.00216231,-0.00922977,-0.00299465,-0.01250702,-0.04997837,0.46214
 844,0.00043524,0.00080992,0.00108524,0.00002581,-0.00025448,-0.0001076
 1,-0.00008598,0.00002085,-0.00016678,-0.00015780,-0.00001962,-0.000152
 52,0.00027525,-0.00286931,-0.00044799,0.00072171,0.00378709,0.00170549
 ,0.00005023,-0.00031548,-0.00024156,-0.00026577,-0.00029218,0.00055606
 ,0.00167286,-0.02140204,-0.00422750,-0.06987721,-0.02936473,-0.2017171
 7,-0.01680552,-0.01775863,-0.04101220,-0.01506206,-0.00827554,-0.00938
 885,0.10391523,0.12928888,0.34117329,0.00025847,0.00015249,0.00023705,
 -0.00000999,-0.00005874,-0.00003987,-0.00001845,-0.00000981,-0.0000284
 3,-0.00008705,-0.00002718,-0.00003552,-0.00020733,-0.00069445,-0.00046
 056,0.00192469,0.00034553,0.00031431,-0.00026100,-0.00002457,0.0001449
 1,-0.00016645,-0.00015925,-0.00008472,-0.00240391,-0.00228255,-0.00252
 654,0.00183424,-0.01181589,0.00113836,-0.00001848,-0.00033650,-0.00165
 220,-0.00149436,-0.00396935,-0.00416263,-0.09658876,0.06685243,-0.0035
 8018,0.57139493,-0.00053621,-0.00112805,-0.00162451,-0.00003458,0.0003
 2517,0.00013490,0.00006321,0.00000433,0.00032962,0.00021949,0.00006193
 ,0.00021668,-0.00037248,0.00349427,0.00150736,-0.00045094,-0.00398825,
 -0.00411238,0.00020640,0.00037721,0.00045713,-0.00000927,0.00024164,0.
 00052826,-0.00044482,0.00601194,0.00369945,0.00018031,-0.03874831,-0.0
 2030671,0.00151144,0.00461854,0.00897494,0.00453856,0.00459375,0.00592
 104,0.04845116,-0.22103387,-0.00746026,0.00453174,0.53217637,-0.000160
 80,-0.00049920,-0.00038386,-0.00002594,0.00009553,0.00000641,0.0000447
 8,0.00000844,0.00006036,0.00007595,0.00001525,0.00007129,-0.00027487,0
 .00098228,-0.00005288,-0.00014591,-0.00281108,-0.00000825,0.00008788,0
 .00011154,0.00004884,0.00019238,0.00025118,0.00009004,-0.00146911,0.00
 070770,-0.00365413,0.00806014,-0.03994809,-0.01291917,-0.00040143,-0.0
 0212384,-0.00093722,0.00055865,0.00010528,0.00055883,-0.01418160,0.022
 59049,-0.08092068,-0.00829338,-0.01924393,0.55320584,-0.00007267,-0.00
 006437,-0.00008170,-0.00000054,0.00001532,0.00000974,0.00000572,0.0000
 0325,0.00000937,0.00002908,0.00000757,0.00001163,0.00006589,0.00019077
 ,0.00009186,-0.00026105,-0.00017779,-0.00013404,0.00007539,0.00007486,
 0.00003743,0.00002975,0.00002885,0.00001340,0.00096702,0.00018391,0.00
 042486,-0.00139567,-0.00202067,-0.00339846,-0.00001992,-0.00021091,0.0
 0050821,0.00098899,0.00140690,0.00155616,-0.00744652,0.01656187,0.0023
 1832,-0.26355370,0.00394477,0.02069406,0.29788910,0.00005773,0.0000970
 0,0.00014275,0.00000407,-0.00002933,-0.00001312,-0.00000675,-0.0000010
 1,-0.00002768,-0.00002022,-0.00000555,-0.00001975,0.00000568,-0.000283
 12,-0.00013171,-0.00011254,0.00037612,0.00045727,-0.00007005,-0.000114
 10,-0.00012750,0.00000244,-0.00002706,-0.00006494,-0.00062494,-0.00087
 468,-0.00078827,0.00596288,0.00322797,0.00639601,-0.00052326,-0.000398
 19,-0.00075062,-0.00203153,0.00025057,-0.00032764,0.04051716,-0.019726
 34,-0.00845041,0.00097777,-0.05595663,0.00333074,-0.01367892,0.0642059
 4,0.00001800,0.00002321,0.00002036,0.00000028,-0.00000506,-0.00000152,
 -0.00000139,-0.00000052,-0.00000253,-0.00000613,-0.00000277,-0.0000023
 1,-0.00002062,-0.00004147,-0.00001957,0.00009342,0.00011173,0.00004959
 ,-0.00004618,-0.00004107,-0.00001701,-0.00001316,-0.00001370,-0.000004
 04,-0.00025636,-0.00027804,-0.00017947,0.00211671,0.00055005,0.0017004
 7,0.00010171,-0.00002182,0.00009617,-0.00063232,0.00030089,0.00018238,
 0.00030731,-0.00313771,0.00348454,0.02479232,0.00243591,-0.06030950,-0
 .01005231,0.00261101,0.06266389,-0.00002054,-0.00001657,-0.00000339,-0
 .00000026,0.00000498,0.00000092,0.00000565,0.00000166,-0.00000316,0.00
 000685,0.00000133,0.00000371,0.00000973,0.00005357,-0.00001608,-0.0001
 6658,-0.00016133,0.00010481,0.00002976,0.00001015,-0.00000887,0.000039
 80,0.00001977,-0.00000912,0.00009109,0.00023860,-0.00011841,-0.0000095
 3,-0.00017915,-0.00085546,-0.00005231,-0.00040110,-0.00012042,-0.00001
 004,0.00012097,0.00047473,0.00987453,0.01043883,-0.00995938,-0.0962416
 8,-0.04519073,0.06712881,-0.01255792,-0.01683462,0.02547769,0.08878481
 ,0.00004864,0.00010435,0.00018765,0.00000134,-0.00003407,-0.00001454,-
 0.00000344,0.00000123,-0.00004039,-0.00001896,-0.00000614,-0.00002203,
 0.00004066,-0.00031328,-0.00020364,0.00015390,0.00046528,0.00040070,-0
 .00002616,-0.00004384,-0.00005536,-0.00000235,-0.00010521,-0.00019320,
 0.00003203,-0.00051850,-0.00157227,0.00218125,0.00237390,0.00990496,0.
 00017630,0.00052332,-0.00249438,-0.00043881,-0.00025165,-0.00081243,-0
 .00651708,-0.04065893,0.01963230,-0.04179445,-0.10923416,0.08184060,-0
 .00106240,0.00517476,0.00160432,0.04377098,0.13082253,0.00000481,0.000
 00060,-0.00003884,0.00000177,0.00000185,0.00000286,-0.00000428,-0.0000
 0356,0.00001434,-0.00000297,0.00000033,0.00000146,-0.00001807,0.000031
 23,0.00006570,0.00009599,0.00012279,-0.00013307,-0.00001837,-0.0000041
 0,0.00001267,-0.00002164,-0.00000650,0.00000957,-0.00002189,-0.0004179
 9,0.00033551,-0.00039849,-0.00115097,0.00117447,0.00042109,0.00155280,
 0.00094769,0.00037979,-0.00012276,-0.00005602,-0.00390335,0.00283284,0
 .00710474,0.06327366,0.08200244,-0.17434569,0.00390741,0.00360976,0.00
 092295,-0.06310113,-0.09617944,0.20515879,-0.00002240,0.00006255,0.000
 08232,0.00000343,-0.00002201,-0.00000250,-0.00000463,0.00000305,-0.000
 02123,0.00000950,0.00000267,-0.00001154,0.00013047,-0.00018529,-0.0000
 1815,-0.00020573,0.00042607,0.00018857,0.00006561,0.00001485,-0.000015
 50,0.00000958,-0.00000475,-0.00004449,0.00094916,-0.00021230,0.0001869
 2,-0.00213992,0.00204981,0.00052141,0.00006476,-0.00005360,-0.00011237
 ,0.00098276,0.00039687,0.00036501,0.01098045,0.00030129,0.00930631,-0.
 11453244,-0.00116342,-0.06737720,-0.01591995,-0.01223815,-0.04115024,0
 .01027830,0.00388117,0.00037829,0.17967161,0.00027829,0.00051790,0.000
 78331,0.00001337,-0.00015877,-0.00006820,-0.00002914,-0.00000293,-0.00
 015401,-0.00010512,-0.00003166,-0.00010104,0.00010615,-0.00169892,-0.0
 0085140,0.00074798,0.00190283,0.00242129,-0.00017535,-0.00016009,-0.00
 020267,-0.00001317,-0.00010273,-0.00032405,-0.00060905,-0.00437437,-0.
 00396104,0.00310645,-0.00119778,0.00536863,-0.00006599,-0.00053151,-0.
 00145649,-0.00053727,-0.00065506,-0.00079918,-0.01840826,-0.03669901,-
 0.05451024,-0.02196965,-0.08887665,-0.04469904,-0.00640034,0.00023343,
 -0.00851245,0.00663970,0.00725687,0.00383634,-0.03939907,0.43193511,0.
 00020706,0.00043105,0.00053675,0.00001796,-0.00012615,-0.00004631,-0.0
 0003573,-0.00000729,-0.00009435,-0.00007798,-0.00001892,-0.00007974,0.
 00015037,-0.00132907,-0.00044540,0.00037483,0.00189638,0.00153695,-0.0
 0012017,-0.00011249,-0.00014285,-0.00005471,-0.00008962,-0.00014417,-0
 .00003918,-0.00331434,-0.00122259,0.00112668,0.00367484,0.00223103,-0.
 00027666,-0.00036097,0.00045876,-0.00001365,-0.00034869,-0.00033541,-0
 .00151585,-0.02386002,-0.01086365,-0.07938330,-0.01055232,-0.21017927,
 -0.01639337,-0.00675598,-0.01002412,-0.01941255,-0.01200869,-0.0432645
 3,0.10888050,0.12742276,0.35165151,0.00007204,0.00010246,0.00013379,0.
 00000346,-0.00002709,-0.00001241,-0.00000782,-0.00000306,-0.00002079,-
 0.00003019,-0.00000824,-0.00001943,-0.00002290,-0.00031639,-0.00013727
 ,0.00025844,0.00040406,0.00038218,-0.00007260,-0.00004425,-0.00004080,
 -0.00002054,-0.00002826,-0.00003936,-0.00019229,-0.00088548,-0.0006723
 2,0.00181321,0.00044255,0.00056475,-0.00015357,-0.00012040,-0.00015074
 ,-0.00019135,-0.00000782,0.00013576,-0.00191193,-0.00273774,-0.0032951
 6,0.00025279,-0.01440488,-0.00189934,-0.00000913,-0.00287616,-0.003207
 61,0.00014355,0.00010405,-0.00112580,-0.08058664,0.05050062,0.00191061
 ,0.56984438,-0.00016818,-0.00038448,-0.00051220,-0.00001353,0.00009644
 ,0.00003272,0.00001878,0.00000171,0.00010409,0.00007176,0.00002138,0.0
 0006732,-0.00010158,0.00105739,0.00047382,-0.00028371,-0.00148687,-0.0
 0141910,0.00010332,0.00011126,0.00013469,0.00001152,0.00007802,0.00020
 264,0.00000842,0.00238246,0.00144457,-0.00025828,-0.00224770,-0.002661
 54,-0.00000825,0.00010845,0.00029158,0.00012634,0.00020176,0.00030234,
 -0.00034588,0.00316298,0.00176632,-0.00095914,-0.03314724,-0.01861597,
 0.00421369,0.00364839,0.00557542,0.00190124,0.00386105,0.00775411,0.03
 004015,-0.22407504,-0.04320247,0.02677530,0.48407084,-0.00002218,-0.00
 006926,-0.00004992,-0.00000457,0.00001038,0.,0.00000529,0.00000187,0.0
 0000644,0.00001315,0.00000299,0.00000915,-0.00001313,0.00012081,-0.000
 00225,-0.00001409,-0.00029266,-0.00002500,0.00001506,0.00001507,0.0000
 0616,0.00001265,0.00001569,-0.00001264,-0.00015623,-0.00002319,-0.0003
 6235,0.00016459,-0.00151351,0.00100987,0.00015037,0.00016396,-0.000004
 87,-0.00002372,0.00002553,-0.00005856,-0.00192108,-0.00216538,-0.00525
 666,0.00586974,-0.04065929,-0.01752347,0.00118549,0.00054432,0.0013783
 5,-0.00038655,-0.00180099,0.00101238,-0.00990561,-0.00962802,-0.085797
 17,0.03020865,-0.00042166,0.61018545,-0.00003027,-0.00004710,-0.000055
 54,-0.00000196,0.00000984,0.00000411,0.00000282,0.00000145,0.00000880,
 0.00001357,0.00000356,0.00000804,0.00000965,0.00011978,0.00005223,-0.0
 0008720,-0.00017488,-0.00015221,0.00002910,0.00001539,0.00001444,0.000
 00685,0.00001199,0.00001493,0.00005287,0.00027649,0.00016498,-0.000225
 54,-0.00028225,-0.00025154,0.00002412,0.00002633,0.00003255,0.00005672
 ,0.00005420,0.00003985,0.00069169,0.00011954,0.00036220,0.00042913,-0.
 00188393,-0.00345243,0.00071453,0.00128743,0.00181679,-0.00017214,-0.0
 0022109,0.00051552,-0.00293299,0.01534106,0.00316874,-0.29168154,0.018
 34574,0.01979634,0.31707634,0.00002112,0.00004266,0.00005520,0.0000015
 5,-0.00001092,-0.00000403,-0.00000279,-0.00000063,-0.00001058,-0.00000
 878,-0.00000245,-0.00000796,0.00000854,-0.00011985,-0.00005058,0.00004
 472,0.00016945,0.00015530,-0.00001395,-0.00001288,-0.00001558,-0.00000
 393,-0.00000981,-0.00001993,-0.00002453,-0.00024762,-0.00014518,-0.000
 10637,0.00030434,0.00037743,-0.00000265,-0.00001765,-0.00004609,-0.000
 07295,-0.00009358,-0.00012925,-0.00069599,-0.00048110,-0.00063043,0.00
 646947,0.00271038,0.00629826,-0.00212149,0.00031184,-0.00024002,-0.000
 67014,-0.00025116,-0.00073841,0.03896467,-0.02091028,-0.01038415,0.015
 28590,-0.05360504,-0.00180021,-0.03216668,0.06539982,-0.00000259,-0.00
 000924,-0.00001207,-0.00000074,0.00000311,0.00000095,0.00000105,0.0000
 0013,0.00000230,0.00000093,-0.00000002,0.00000215,-0.00000803,0.000031
 77,0.00000827,0.00000570,-0.00004659,-0.00003608,-0.00000072,0.0000014
 5,0.00000501,0.00000072,0.00000245,0.00000512,-0.00003755,0.00008917,0
 .00003633,0.00002037,-0.00010514,-0.00010561,-0.00000469,-0.00000534,0
 .00001119,-0.00004788,-0.00003657,-0.00002228,-0.00049586,-0.00000481,
 -0.00016828,0.00440276,0.00037018,0.00173671,-0.00076706,0.00034239,0.
 00038312,-0.00003176,0.00003875,-0.00014437,0.00500601,-0.00549211,0.0
 0059074,0.01949424,-0.00121984,-0.05749278,-0.02436025,0.00426048,0.05
 163648,0.00000351,0.00001074,0.00000950,0.00000105,-0.00000193,-0.0000
 0035,-0.00000078,-0.00000033,-0.00000129,-0.00000197,-0.00000014,-0.00
 000172,0.00000342,-0.00002237,-0.00000271,-0.00000986,0.00003988,0.000
 01727,-0.00000057,-0.00000229,-0.00000341,-0.00000027,-0.00000221,-0.0
 0000030,0.00001352,-0.00002190,0.00001413,0.00000704,0.00017770,0.0000
 2125,-0.00000310,-0.00000578,-0.00000989,0.00001026,0.00000280,-0.0000
 0421,0.00053727,0.00025109,0.00018769,-0.00022104,0.00142735,0.0008030
 1,0.00064753,0.00016218,0.00028693,0.00002155,0.00006171,-0.00028810,0
 .00530804,0.00332826,0.01009051,-0.10994418,-0.02900838,-0.11093083,-0
 .01280784,-0.00636984,-0.02844944,0.10981714,0.00002440,0.00004258,0.0
 0006361,0.00000125,-0.00001508,-0.00000701,-0.00000335,-0.00000080,-0.
 00001164,-0.00000848,-0.00000240,-0.00000891,0.00001296,-0.00015820,-0
 .00006851,0.00006411,0.00018506,0.00021533,-0.00001614,-0.00001630,-0.
 00002063,-0.00000332,-0.00001178,-0.00002729,-0.00005594,-0.00045737,-
 0.00035391,0.00039487,0.00007341,0.00065396,-0.00000389,-0.00001231,-0
 .00008711,-0.00005879,-0.00003041,-0.00004852,-0.00080395,-0.00126469,
 -0.00234173,0.00246702,-0.00429086,0.00169148,-0.00037027,-0.00000296,
 -0.00004029,0.00012291,0.00021392,-0.00067740,-0.01516997,-0.02097979,
 -0.03719400,-0.02266584,-0.05790929,-0.04028568,-0.00013263,0.00212001
 ,0.00297143,0.02681549,0.07609839,0.00001742,0.00004136,0.00005382,0.0
 0000149,-0.00001222,-0.00000404,-0.00000309,-0.00000021,-0.00001034,-0
 .00000650,-0.00000179,-0.00000756,0.00001772,-0.00012650,-0.00004686,0
 .00003127,0.00017604,0.00014639,-0.00000847,-0.00001258,-0.00001456,-0
 .00000389,-0.00001095,-0.00001936,-0.00000548,-0.00029857,-0.00018420,
 0.00014648,0.00030083,0.00046970,-0.00001350,-0.00001405,-0.00004570,-
 0.00003506,-0.00002401,-0.00004098,-0.00042124,-0.00061495,-0.00053358
 ,0.00140265,-0.00001704,0.00208229,-0.00027919,0.00001336,-0.00003860,
 0.00000600,0.00003998,0.00037180,-0.00059584,-0.00684376,-0.00460424,-
 0.10726542,-0.05068997,-0.25775916,0.00185568,0.00214935,0.00495492,0.
 11647032,0.06007125,0.27399974,-0.00000783,-0.00001385,-0.00001347,-0.
 00000078,0.00000432,0.00000135,0.00000220,0.00000060,0.00000164,0.0000
 0281,0.00000047,0.00000291,-0.00000455,0.00004521,0.00000731,-0.000018
 51,-0.00006992,-0.00003199,0.00000574,0.00000455,0.00000511,0.00000566
 ,0.00000542,0.00000074,0.00000173,0.00010966,0.00001888,-0.00013152,-0
 .00023067,-0.00001217,0.00003372,0.00001626,-0.00000588,0.00002223,0.0
 0000668,-0.00000027,0.00004923,0.00030967,-0.00018180,-0.00028962,-0.0
 0058314,0.00003636,-0.00017594,0.00003979,0.00037518,-0.00005463,-0.00
 036729,-0.00007424,0.00789104,0.00765052,-0.00860412,-0.08756317,-0.05
 046935,0.06595667,-0.01116794,-0.01853588,0.02527478,0.00661930,0.0093
 8955,-0.01131134,0.08478082,0.00001969,0.00005106,0.00007567,0.0000012
 8,-0.00001310,-0.00000458,-0.00000176,0.00000040,-0.00001696,-0.000008
 36,-0.00000294,-0.00000923,0.00001678,-0.00014138,-0.00007442,0.000029
 76,0.00019256,0.00022139,-0.00000977,-0.00001435,-0.00002002,0.0000018
 5,-0.00000790,-0.00003510,0.00001187,-0.00028697,-0.00022974,0.0001531
 2,0.00040273,0.00032355,-0.00002092,-0.00008554,-0.00018218,-0.0000223
 9,-0.00003151,-0.00004560,-0.00003775,-0.00010187,-0.00136028,0.002305
 07,0.00178850,0.00991237,-0.00052461,-0.00010705,-0.00087761,0.0001289
 4,0.00061973,-0.00244395,-0.00769459,-0.04139157,0.01624016,-0.0494893
 1,-0.12594646,0.09775922,-0.00070425,0.00470445,-0.00119165,0.00315797
 ,0.00641888,-0.00412556,0.05268739,0.15395232,-0.00000778,-0.00002650,
 -0.00004288,-0.00000035,0.00000687,0.00000195,0.00000032,-0.00000088,0
 .00001066,0.00000313,0.00000146,0.00000461,-0.00001318,0.00007234,0.00
 004405,-0.00000579,-0.00009979,-0.00012783,0.00000186,0.00000714,0.000
 01080,-0.00000298,0.00000168,0.00002345,-0.00000912,0.00018982,0.00012
 698,0.00003880,-0.00010959,-0.00029693,-0.00001291,-0.00000609,-0.0000
 0732,0.00000324,0.00000905,0.00002683,0.00000680,-0.00008313,0.0000956
 7,-0.00132843,-0.00260147,0.00337350,0.00033818,0.00001003,-0.00028315
 ,0.00082960,0.00174810,0.00084759,-0.00566066,-0.00222864,0.01023805,0
 .06505648,0.10059315,-0.18926300,0.00041678,0.00092638,-0.00139183,0.0
 1179166,0.01550556,-0.01876947,-0.07144567,-0.11391547,0.19537826\\-0.
 00003326,-0.00002702,-0.00006980,0.00000697,0.00003217,0.00003001,0.00
 000541,-0.00000158,-0.00002324,-0.00002002,-0.00001051,-0.00000772,-0.
 00001944,0.00011004,0.00003165,0.00010850,-0.00013324,0.00010082,-0.00
 005229,-0.00001594,-0.00003000,0.00000052,0.00000281,-0.00006239,-0.00
 002955,0.00006493,-0.00001154,0.00010975,-0.00007990,0.00013800,-0.000
 00147,0.00002323,-0.00004058,-0.00004340,0.00000867,-0.00001451,-0.000
 02732,-0.00002153,-0.00006343,0.00010826,-0.00002118,0.00016588,-0.000
 05264,0.00003370,-0.00000209,0.00000107,0.00005303,-0.00003264,-0.0000
 2116,-0.00008284,-0.00007862,-0.00003192,0.00007446,-0.00001214,-0.000
 02009,0.00001208,0.00000532,0.00000665,-0.00004215,-0.00001276,0.00000
 541,0.00002078,-0.00001021\\\@


 IT'S WHAT YOU LEARN AFTER YOU KNOW IT ALL
 THAT COUNTS.
 Job cpu time:  0 days  0 hours 20 minutes  7.0 seconds.
 File lengths (MBytes):  RWF=    140 Int=      0 D2E=      0 Chk=      4 Scr=      1
 Normal termination of Gaussian 09 at Tue May 26 04:26:35 2015.
