 Entering Gaussian System, Link 0=/share/apps/g09/g09
 Input=ts2_1_opt_631gd.gjf
 Output=ts2_1_opt_631gd.log
 Initial command:
 /share/apps/g09/l1.exe /state/partition1/Gau-17093.inp -scrdir=/state/partition1/
 Entering Link 1 = /share/apps/g09/l1.exe PID=     17094.
  
 Copyright (c) 1988,1990,1992,1993,1995,1998,2003,2009, Gaussian, Inc.
                  All Rights Reserved.
  
 This is part of the Gaussian(R) 09 program.  It is based on
 the Gaussian(R) 03 system (copyright 2003, Gaussian, Inc.),
 the Gaussian(R) 98 system (copyright 1998, Gaussian, Inc.),
 the Gaussian(R) 94 system (copyright 1995, Gaussian, Inc.),
 the Gaussian 92(TM) system (copyright 1992, Gaussian, Inc.),
 the Gaussian 90(TM) system (copyright 1990, Gaussian, Inc.),
 the Gaussian 88(TM) system (copyright 1988, Gaussian, Inc.),
 the Gaussian 86(TM) system (copyright 1986, Carnegie Mellon
 University), and the Gaussian 82(TM) system (copyright 1983,
 Carnegie Mellon University). Gaussian is a federally registered
 trademark of Gaussian, Inc.
  
 This software contains proprietary and confidential information,
 including trade secrets, belonging to Gaussian, Inc.
  
 This software is provided under written license and may be
 used, copied, transmitted, or stored only in accord with that
 written license.
  
 The following legend is applicable only to US Government
 contracts under FAR:
  
                    RESTRICTED RIGHTS LEGEND
  
 Use, reproduction and disclosure by the US Government is
 subject to restrictions as set forth in subparagraphs (a)
 and (c) of the Commercial Computer Software - Restricted
 Rights clause in FAR 52.227-19.
  
 Gaussian, Inc.
 340 Quinnipiac St., Bldg. 40, Wallingford CT 06492
  
  
 ---------------------------------------------------------------
 Warning -- This program may not be used in any manner that
 competes with the business of Gaussian, Inc. or will provide
 assistance to any competitor of Gaussian, Inc.  The licensee
 of this program is prohibited from giving any competitor of
 Gaussian, Inc. access to this program.  By using this program,
 the user acknowledges that Gaussian, Inc. is engaged in the
 business of creating and licensing software in the field of
 computational chemistry and represents and warrants to the
 licensee that it is not a competitor of Gaussian, Inc. and that
 it will not use this program in any manner prohibited above.
 ---------------------------------------------------------------
  

 Cite this work as:
 Gaussian 09, Revision A.01,
 M. J. Frisch, G. W. Trucks, H. B. Schlegel, G. E. Scuseria, 
 M. A. Robb, J. R. Cheeseman, G. Scalmani, V. Barone, B. Mennucci, 
 G. A. Petersson, H. Nakatsuji, M. Caricato, X. Li, H. P. Hratchian, 
 A. F. Izmaylov, J. Bloino, G. Zheng, J. L. Sonnenberg, M. Hada, 
 M. Ehara, K. Toyota, R. Fukuda, J. Hasegawa, M. Ishida, T. Nakajima, 
 Y. Honda, O. Kitao, H. Nakai, T. Vreven, J. A. Montgomery, Jr., 
 J. E. Peralta, F. Ogliaro, M. Bearpark, J. J. Heyd, E. Brothers, 
 K. N. Kudin, V. N. Staroverov, R. Kobayashi, J. Normand, 
 K. Raghavachari, A. Rendell, J. C. Burant, S. S. Iyengar, J. Tomasi, 
 M. Cossi, N. Rega, J. M. Millam, M. Klene, J. E. Knox, J. B. Cross, 
 V. Bakken, C. Adamo, J. Jaramillo, R. Gomperts, R. E. Stratmann, 
 O. Yazyev, A. J. Austin, R. Cammi, C. Pomelli, J. W. Ochterski, 
 R. L. Martin, K. Morokuma, V. G. Zakrzewski, G. A. Voth, 
 P. Salvador, J. J. Dannenberg, S. Dapprich, A. D. Daniels, 
 O. Farkas, J. B. Foresman, J. V. Ortiz, J. Cioslowski, 
 and D. J. Fox, Gaussian, Inc., Wallingford CT, 2009.
 
 ******************************************
 Gaussian 09:  EM64L-G09RevA.01  8-May-2009
                 6-Jun-2015 
 ******************************************
 %mem=28GB
 %nprocshared=12
 Will use up to   12 processors via shared memory.
 %chk=ts2_1_opt_631gd.chk
 -------------------------------------
 #p ub3lyp/cbsb7 opt=(TS, calcfc) freq
 -------------------------------------
 1/5=1,10=4,14=-1,18=20,26=3,38=1/1,3;
 2/9=110,12=2,17=6,18=5,40=1/2;
 3/5=4,6=6,7=700,11=2,16=1,25=1,30=1,71=2,74=-5,116=2/1,2,3;
 4//1;
 5/5=2,38=5/2;
 8/6=4,10=90,11=11/1;
 11/6=1,8=1,9=11,15=111,16=1/1,2,10;
 10/6=1,7=6,13=1/2;
 6/7=2,8=2,9=2,10=2,28=1/1;
 7/10=1,18=20,25=1/1,2,3,16;
 1/5=1,10=4,14=-1,18=20/3(2);
 2/9=110/2;
 99//99;
 2/9=110/2;
 3/5=4,6=6,7=700,11=2,16=1,25=1,30=1,71=1,74=-5,116=2/1,2,3;
 4/5=5,16=3/1;
 5/5=2,38=5/2;
 7//1,2,3,16;
 1/5=1,14=-1,18=20/3(-5);
 2/9=110/2;
 6/7=2,8=2,9=2,10=2,19=2,28=1/1;
 99/9=1/99;
 Leave Link    1 at Sat Jun  6 17:51:58 2015, MaxMem= 3758096384 cpu:       0.4
 (Enter /share/apps/g09/l101.exe)
 -----------------------------
 using ub3lyp/6-31G(d) to scan
 -----------------------------
 Symbolic Z-matrix:
 Charge =  0 Multiplicity = 2
 O                     0.        0.        0. 
 H                     0.        0.        1.16176 
 O                     1.38688   0.       -0.27707 
 C                     1.96979  -1.06761   0.45854 
 H                     2.99823  -1.1388    0.09799 
 H                     1.43384  -1.99805   0.24453 
 C                     1.91944  -0.71914   1.9656 
 H                     2.30886  -1.58445   2.51866 
 H                     2.59344   0.12144   2.14483 
 C                     0.51829  -0.3787    2.40519 
 H                     0.39083   0.49055   3.04517 
 H                    -0.13665  -1.21239   2.65268 
 
 NAtoms=     12 NQM=     12 NQMF=      0 NMic=      0 NMicF=      0 NTot=     12.
                    Isotopes and Nuclear Properties:
 (Nuclear quadrupole moments (NQMom) in fm**2, nuclear magnetic moments (NMagM)
  in nuclear magnetons)

  Atom         1           2           3           4           5           6           7           8           9          10
 IAtWgt=          16           1          16          12           1           1          12           1           1          12
 AtmWgt=  15.9949146   1.0078250  15.9949146  12.0000000   1.0078250   1.0078250  12.0000000   1.0078250   1.0078250  12.0000000
 NucSpn=           0           1           0           0           1           1           0           1           1           0
 AtZEff=   0.0000000   0.0000000   0.0000000   0.0000000   0.0000000   0.0000000   0.0000000   0.0000000   0.0000000   0.0000000
 NQMom=    0.0000000   0.0000000   0.0000000   0.0000000   0.0000000   0.0000000   0.0000000   0.0000000   0.0000000   0.0000000
 NMagM=    0.0000000   2.7928460   0.0000000   0.0000000   2.7928460   2.7928460   0.0000000   2.7928460   2.7928460   0.0000000

  Atom        11          12
 IAtWgt=           1           1
 AtmWgt=   1.0078250   1.0078250
 NucSpn=           1           1
 AtZEff=   0.0000000   0.0000000
 NQMom=    0.0000000   0.0000000
 NMagM=    2.7928460   2.7928460
 Leave Link  101 at Sat Jun  6 17:51:58 2015, MaxMem= 3758096384 cpu:       0.6
 (Enter /share/apps/g09/l103.exe)

 GradGradGradGradGradGradGradGradGradGradGradGradGradGradGradGradGradGrad
 Berny optimization.
 Initialization pass.
                           ----------------------------
                           !    Initial Parameters    !
                           ! (Angstroms and Degrees)  !
 --------------------------                            --------------------------
 ! Name  Definition              Value          Derivative Info.                !
 --------------------------------------------------------------------------------
 ! R1    R(1,2)                  1.1618         calculate D2E/DX2 analytically  !
 ! R2    R(1,3)                  1.4143         calculate D2E/DX2 analytically  !
 ! R3    R(2,10)                 1.3993         calculate D2E/DX2 analytically  !
 ! R4    R(3,4)                  1.4215         calculate D2E/DX2 analytically  !
 ! R5    R(4,5)                  1.0921         calculate D2E/DX2 analytically  !
 ! R6    R(4,6)                  1.0949         calculate D2E/DX2 analytically  !
 ! R7    R(4,7)                  1.5476         calculate D2E/DX2 analytically  !
 ! R8    R(7,8)                  1.0983         calculate D2E/DX2 analytically  !
 ! R9    R(7,9)                  1.0922         calculate D2E/DX2 analytically  !
 ! R10   R(7,10)                 1.5074         calculate D2E/DX2 analytically  !
 ! R11   R(10,11)                1.0869         calculate D2E/DX2 analytically  !
 ! R12   R(10,12)                1.0887         calculate D2E/DX2 analytically  !
 ! A1    A(2,1,3)              101.2977         calculate D2E/DX2 analytically  !
 ! A2    A(1,2,10)             152.6957         calculate D2E/DX2 analytically  !
 ! A3    A(1,3,4)              107.502          calculate D2E/DX2 analytically  !
 ! A4    A(3,4,5)              105.3234         calculate D2E/DX2 analytically  !
 ! A5    A(3,4,6)              109.6553         calculate D2E/DX2 analytically  !
 ! A6    A(3,4,7)              108.7519         calculate D2E/DX2 analytically  !
 ! A7    A(5,4,6)              109.9396         calculate D2E/DX2 analytically  !
 ! A8    A(5,4,7)              111.5177         calculate D2E/DX2 analytically  !
 ! A9    A(6,4,7)              111.4545         calculate D2E/DX2 analytically  !
 ! A10   A(4,7,8)              107.5433         calculate D2E/DX2 analytically  !
 ! A11   A(4,7,9)              108.2405         calculate D2E/DX2 analytically  !
 ! A12   A(4,7,10)             111.4114         calculate D2E/DX2 analytically  !
 ! A13   A(8,7,9)              107.752          calculate D2E/DX2 analytically  !
 ! A14   A(8,7,10)             111.1397         calculate D2E/DX2 analytically  !
 ! A15   A(9,7,10)             110.6045         calculate D2E/DX2 analytically  !
 ! A16   A(2,10,7)              98.4099         calculate D2E/DX2 analytically  !
 ! A17   A(2,10,11)            105.2674         calculate D2E/DX2 analytically  !
 ! A18   A(2,10,12)            100.7439         calculate D2E/DX2 analytically  !
 ! A19   A(7,10,11)            117.4718         calculate D2E/DX2 analytically  !
 ! A20   A(7,10,12)            116.9057         calculate D2E/DX2 analytically  !
 ! A21   A(11,10,12)           114.0809         calculate D2E/DX2 analytically  !
 ! D1    D(3,1,2,10)           -36.1549         calculate D2E/DX2 analytically  !
 ! D2    D(2,1,3,4)             51.9519         calculate D2E/DX2 analytically  !
 ! D3    D(1,2,10,7)            21.7159         calculate D2E/DX2 analytically  !
 ! D4    D(1,2,10,11)          143.2994         calculate D2E/DX2 analytically  !
 ! D5    D(1,2,10,12)          -97.8654         calculate D2E/DX2 analytically  !
 ! D6    D(1,3,4,5)            171.0624         calculate D2E/DX2 analytically  !
 ! D7    D(1,3,4,6)             52.8106         calculate D2E/DX2 analytically  !
 ! D8    D(1,3,4,7)            -69.2909         calculate D2E/DX2 analytically  !
 ! D9    D(3,4,7,8)            176.0986         calculate D2E/DX2 analytically  !
 ! D10   D(3,4,7,9)            -67.7417         calculate D2E/DX2 analytically  !
 ! D11   D(3,4,7,10)            54.0771         calculate D2E/DX2 analytically  !
 ! D12   D(5,4,7,8)            -68.1899         calculate D2E/DX2 analytically  !
 ! D13   D(5,4,7,9)             47.9698         calculate D2E/DX2 analytically  !
 ! D14   D(5,4,7,10)           169.7886         calculate D2E/DX2 analytically  !
 ! D15   D(6,4,7,8)             55.0959         calculate D2E/DX2 analytically  !
 ! D16   D(6,4,7,9)            171.2555         calculate D2E/DX2 analytically  !
 ! D17   D(6,4,7,10)           -66.9257         calculate D2E/DX2 analytically  !
 ! D18   D(4,7,10,2)           -23.3273         calculate D2E/DX2 analytically  !
 ! D19   D(4,7,10,11)         -135.4682         calculate D2E/DX2 analytically  !
 ! D20   D(4,7,10,12)           83.3119         calculate D2E/DX2 analytically  !
 ! D21   D(8,7,10,2)          -143.245          calculate D2E/DX2 analytically  !
 ! D22   D(8,7,10,11)          104.6141         calculate D2E/DX2 analytically  !
 ! D23   D(8,7,10,12)          -36.6057         calculate D2E/DX2 analytically  !
 ! D24   D(9,7,10,2)            97.1111         calculate D2E/DX2 analytically  !
 ! D25   D(9,7,10,11)          -15.0298         calculate D2E/DX2 analytically  !
 ! D26   D(9,7,10,12)         -156.2496         calculate D2E/DX2 analytically  !
 --------------------------------------------------------------------------------
 Trust Radius=3.00D-01 FncErr=1.00D-07 GrdErr=1.00D-06
 Number of steps in this run=  69 maximum allowed number of steps= 100.
 Search for a saddle point of order  1.
 GradGradGradGradGradGradGradGradGradGradGradGradGradGradGradGradGradGrad

 Leave Link  103 at Sat Jun  6 17:51:58 2015, MaxMem= 3758096384 cpu:       0.0
 (Enter /share/apps/g09/l202.exe)
                          Input orientation:                          
 ---------------------------------------------------------------------
 Center     Atomic      Atomic             Coordinates (Angstroms)
 Number     Number       Type             X           Y           Z
 ---------------------------------------------------------------------
      1          8           0        0.000000    0.000000    0.000000
      2          1           0        0.000000    0.000000    1.161757
      3          8           0        1.386877    0.000000   -0.277068
      4          6           0        1.969786   -1.067607    0.458541
      5          1           0        2.998225   -1.138798    0.097994
      6          1           0        1.433836   -1.998054    0.244525
      7          6           0        1.919436   -0.719140    1.965596
      8          1           0        2.308859   -1.584451    2.518664
      9          1           0        2.593436    0.121439    2.144834
     10          6           0        0.518288   -0.378704    2.405194
     11          1           0        0.390827    0.490551    3.045166
     12          1           0       -0.136654   -1.212392    2.652676
 ---------------------------------------------------------------------
                    Distance matrix (angstroms):
                    1          2          3          4          5
     1  O    0.000000
     2  H    1.161757   0.000000
     3  O    1.414282   1.998411   0.000000
     4  C    2.286942   2.348266   1.421509   0.000000
     5  H    3.208710   3.379024   2.008476   1.092131   0.000000
     6  H    2.471416   2.624770   2.065547   1.094887   1.790839
     7  C    2.839888   2.201716   2.414606   1.547637   2.197234
     8  H    3.766296   3.111673   3.343150   2.150861   2.556066
     9  H    3.367636   2.776166   2.708531   2.155540   2.437541
    10  C    2.489377   1.399348   2.844713   2.524063   3.471455
    11  H    3.109087   1.985098   3.502855   3.407579   4.259005
    12  H    2.919805   1.926502   3.517732   3.045042   4.044661
                    6          7          8          9         10
     6  H    0.000000
     7  C    2.198525   0.000000
     8  H    2.471526   1.098316   0.000000
     9  H    3.073776   1.092234   1.769405   0.000000
    10  C    2.851142   1.507435   2.161677   2.150388   0.000000
    11  H    3.889037   2.228333   2.874315   2.407972   1.086929
    12  H    2.980419   2.223259   2.477281   3.080649   1.088684
                   11         12
    11  H    0.000000
    12  H    1.825459   0.000000
 Stoichiometry    C3H7O2(2)
 Framework group  C1[X(C3H7O2)]
 Deg. of freedom    30
 Full point group                 C1      NOp   1
 Largest Abelian subgroup         C1      NOp   1
 Largest concise Abelian subgroup C1      NOp   1
                         Standard orientation:                         
 ---------------------------------------------------------------------
 Center     Atomic      Atomic             Coordinates (Angstroms)
 Number     Number       Type             X           Y           Z
 ---------------------------------------------------------------------
      1          8           0        1.134339   -1.050582    0.133756
      2          1           0       -0.002780   -1.252607    0.007956
      3          8           0        1.238866    0.267280   -0.368745
      4          6           0        0.271689    1.060343    0.306760
      5          1           0        0.489188    2.090402    0.016204
      6          1           0        0.391209    0.944468    1.388917
      7          6           0       -1.139543    0.625752   -0.156635
      8          1           0       -1.871238    1.200029    0.427425
      9          1           0       -1.256522    0.906664   -1.205625
     10          6           0       -1.344959   -0.856950    0.021573
     11          1           0       -1.811829   -1.400297   -0.795875
     12          1           0       -1.646797   -1.197119    1.010720
 ---------------------------------------------------------------------
 Rotational constants (GHZ):      7.5053390      4.8722018      3.3070179
 Leave Link  202 at Sat Jun  6 17:51:58 2015, MaxMem= 3758096384 cpu:       0.5
 (Enter /share/apps/g09/l301.exe)
 Standard basis: 6-311G(2d,d,p) (5D, 7F)
 Ernie: Thresh=  0.10000D-02 Tol=  0.10000D-05 Strict=F.
 There are   132 symmetry adapted basis functions of A   symmetry.
 Integral buffers will be    131072 words long.
 Raffenetti 2 integral format.
 Two-electron integral symmetry is turned on.
   132 basis functions,   216 primitive gaussians,   137 cartesian basis functions
    21 alpha electrons       20 beta electrons
       nuclear repulsion energy       189.8566843628 Hartrees.
 IExCor=  402 DFT=T Ex+Corr=B3LYP ExCW=0 ScaHFX=  0.200000
 ScaDFX=  0.800000  0.720000  1.000000  0.810000 ScalE2=  1.000000  1.000000
 IRadAn=      0 IRanWt=     -1 IRanGd=            0 ICorTp=0
 NAtoms=   12 NActive=   12 NUniq=   12 SFac= 7.50D-01 NAtFMM=   80 NAOKFM=F Big=F
 Leave Link  301 at Sat Jun  6 17:51:58 2015, MaxMem= 3758096384 cpu:       0.4
 (Enter /share/apps/g09/l302.exe)
 NPDir=0 NMtPBC=     1 NCelOv=     1 NCel=       1 NClECP=     1 NCelD=      1
         NCelK=      1 NCelE2=     1 NClLst=     1 CellRange=     0.0.
 One-electron integrals computed using PRISM.
 NBasis=   132 RedAO= T  NBF=   132
 NBsUse=   132 1.00D-06 NBFU=   132
 Precomputing XC quadrature grid using
 IXCGrd= 2 IRadAn=           0 IRanWt=          -1 IRanGd=           0 AccXCQ= 1.00D-10.
 NRdTot=     754 NPtTot=       95216 NUsed=      100663 NTot=      100695
 NSgBfM=   137   137   137   137   137 NAtAll=    12    12.
 Leave Link  302 at Sat Jun  6 17:51:59 2015, MaxMem= 3758096384 cpu:       5.3
 (Enter /share/apps/g09/l303.exe)
 DipDrv:  MaxL=1.
 Leave Link  303 at Sat Jun  6 17:51:59 2015, MaxMem= 3758096384 cpu:       0.7
 (Enter /share/apps/g09/l401.exe)
 Harris functional with IExCor=  402 diagonalized for initial guess.
 ExpMin= 1.03D-01 ExpMax= 8.59D+03 ExpMxC= 1.30D+03 IAcc=1 IRadAn=         1 AccDes= 0.00D+00
 HarFok:  IExCor=  402 AccDes= 0.00D+00 IRadAn=         1 IDoV= 1
 ScaDFX=  1.000000  1.000000  1.000000  1.000000
 FoFCou: FMM=F IPFlag=           0 FMFlag=      100000 FMFlg1=           0
         NFxFlg=           0 DoJE=T BraDBF=F KetDBF=T FulRan=T
         Omega=  0.000000  0.000000  1.000000  0.000000  0.000000 ICntrl=     500 IOpCl=  0
         NMat0=    1 NMatS0=    1 NMatT0=    0 NMatD0=    1 NMtDS0=    0 NMtDT0=    0
         I1Cent=           4 NGrid=           0.
 Petite list used in FoFCou.
 Harris En= -268.914131884060    
 Initial guess orbital symmetries:
 Alpha Orbitals:
       Occupied  (A) (A) (A) (A) (A) (A) (A) (A) (A) (A) (A) (A)
                 (A) (A) (A) (A) (A) (A) (A) (A) (A)
       Virtual   (A) (A) (A) (A) (A) (A) (A) (A) (A) (A) (A) (A)
                 (A) (A) (A) (A) (A) (A) (A) (A) (A) (A) (A) (A)
                 (A) (A) (A) (A) (A) (A) (A) (A) (A) (A) (A) (A)
                 (A) (A) (A) (A) (A) (A) (A) (A) (A) (A) (A) (A)
                 (A) (A) (A) (A) (A) (A) (A) (A) (A) (A) (A) (A)
                 (A) (A) (A) (A) (A) (A) (A) (A) (A) (A) (A) (A)
                 (A) (A) (A) (A) (A) (A) (A) (A) (A) (A) (A) (A)
                 (A) (A) (A) (A) (A) (A) (A) (A) (A) (A) (A) (A)
                 (A) (A) (A) (A) (A) (A) (A) (A) (A) (A) (A) (A)
                 (A) (A) (A)
 Beta  Orbitals:
       Occupied  (A) (A) (A) (A) (A) (A) (A) (A) (A) (A) (A) (A)
                 (A) (A) (A) (A) (A) (A) (A) (A)
       Virtual   (A) (A) (A) (A) (A) (A) (A) (A) (A) (A) (A) (A)
                 (A) (A) (A) (A) (A) (A) (A) (A) (A) (A) (A) (A)
                 (A) (A) (A) (A) (A) (A) (A) (A) (A) (A) (A) (A)
                 (A) (A) (A) (A) (A) (A) (A) (A) (A) (A) (A) (A)
                 (A) (A) (A) (A) (A) (A) (A) (A) (A) (A) (A) (A)
                 (A) (A) (A) (A) (A) (A) (A) (A) (A) (A) (A) (A)
                 (A) (A) (A) (A) (A) (A) (A) (A) (A) (A) (A) (A)
                 (A) (A) (A) (A) (A) (A) (A) (A) (A) (A) (A) (A)
                 (A) (A) (A) (A) (A) (A) (A) (A) (A) (A) (A) (A)
                 (A) (A) (A) (A)
 The electronic state of the initial guess is 2-A.
 Initial guess <Sx>= 0.0000 <Sy>= 0.0000 <Sz>= 0.5000 <S**2>= 0.7500 S= 0.5000
 Leave Link  401 at Sat Jun  6 17:51:59 2015, MaxMem= 3758096384 cpu:       4.7
 (Enter /share/apps/g09/l502.exe)
 UHF open shell SCF:
 Requested convergence on RMS density matrix=1.00D-08 within 128 cycles.
 Requested convergence on MAX density matrix=1.00D-06.
 Requested convergence on             energy=1.00D-06.
 No special actions if energy rises.
 Using DIIS extrapolation, IDIIS=  1040.
 Integral symmetry usage will be decided dynamically.
       100542 words used for storage of precomputed grid.
 Keep R1 and R2 ints in memory in canonical form, NReq=90860320.
 IEnd=      177670 IEndB=      177670 NGot=  3758096384 MDV=  3668585571
 LenX=  3668585571 LenY=  3668566361
 Symmetry not used in FoFDir.
 MinBra= 0 MaxBra= 2 Meth= 1.
 IRaf=       0 NMat=   1 IRICut=       1 DoRegI=T DoRafI=F ISym2E= 0 JSym2E=0.
 Integral accuracy reduced to 1.0D-05 until final iterations.

 Cycle   1  Pass 0  IDiag  1:
 E= -268.736866924339    
 DIIS: error= 2.98D-02 at cycle   1 NSaved=   1.
 NSaved= 1 IEnMin= 1 EnMin= -268.736866924339     IErMin= 1 ErrMin= 2.98D-02
 ErrMax= 2.98D-02 EMaxC= 1.00D-01 BMatC= 5.95D-01 BMatP= 5.95D-01
 IDIUse=3 WtCom= 7.02D-01 WtEn= 2.98D-01
 Coeff-Com:  0.100D+01
 Coeff-En:   0.100D+01
 Coeff:      0.100D+01
 Gap=     0.188 Goal=   None    Shift=    0.000
 Gap=     0.166 Goal=   None    Shift=    0.000
 GapD=    0.166 DampG=1.000 DampE=0.500 DampFc=0.5000 IDamp=-1.
 Damping current iteration by 5.00D-01
 RMSDP=4.85D-03 MaxDP=1.27D-01              OVMax= 3.06D-01

 Cycle   2  Pass 0  IDiag  1:
 E= -268.789181780818     Delta-E=       -0.052314856479 Rises=F Damp=T
 DIIS: error= 1.06D-02 at cycle   2 NSaved=   2.
 NSaved= 2 IEnMin= 2 EnMin= -268.789181780818     IErMin= 2 ErrMin= 1.06D-02
 ErrMax= 1.06D-02 EMaxC= 1.00D-01 BMatC= 8.01D-02 BMatP= 5.95D-01
 IDIUse=3 WtCom= 8.94D-01 WtEn= 1.06D-01
 Coeff-Com:  0.144D+00 0.856D+00
 Coeff-En:   0.249D+00 0.751D+00
 Coeff:      0.155D+00 0.845D+00
 Gap=     0.286 Goal=   None    Shift=    0.000
 Gap=     0.185 Goal=   None    Shift=    0.000
 RMSDP=1.62D-03 MaxDP=2.95D-02 DE=-5.23D-02 OVMax= 2.15D-01

 Cycle   3  Pass 0  IDiag  1:
 E= -268.867882136716     Delta-E=       -0.078700355898 Rises=F Damp=F
 DIIS: error= 1.18D-02 at cycle   3 NSaved=   3.
 NSaved= 3 IEnMin= 3 EnMin= -268.867882136716     IErMin= 2 ErrMin= 1.06D-02
 ErrMax= 1.18D-02 EMaxC= 1.00D-01 BMatC= 6.47D-02 BMatP= 8.01D-02
 IDIUse=3 WtCom= 8.82D-01 WtEn= 1.18D-01
 Coeff-Com:  0.108D-01 0.467D+00 0.522D+00
 Coeff-En:   0.000D+00 0.000D+00 0.100D+01
 Coeff:      0.949D-02 0.412D+00 0.579D+00
 Gap=     0.272 Goal=   None    Shift=    0.000
 Gap=     0.138 Goal=   None    Shift=    0.000
 RMSDP=1.06D-03 MaxDP=2.44D-02 DE=-7.87D-02 OVMax= 1.09D-01

 Cycle   4  Pass 0  IDiag  1:
 E= -268.876854770486     Delta-E=       -0.008972633770 Rises=F Damp=F
 DIIS: error= 4.75D-03 at cycle   4 NSaved=   4.
 NSaved= 4 IEnMin= 4 EnMin= -268.876854770486     IErMin= 4 ErrMin= 4.75D-03
 ErrMax= 4.75D-03 EMaxC= 1.00D-01 BMatC= 2.44D-02 BMatP= 6.47D-02
 IDIUse=3 WtCom= 9.52D-01 WtEn= 4.75D-02
 Coeff-Com:  0.376D-02 0.120D+00 0.391D+00 0.485D+00
 Coeff-En:   0.000D+00 0.000D+00 0.280D+00 0.720D+00
 Coeff:      0.358D-02 0.114D+00 0.386D+00 0.496D+00
 Gap=     0.263 Goal=   None    Shift=    0.000
 Gap=     0.138 Goal=   None    Shift=    0.000
 RMSDP=3.77D-04 MaxDP=9.06D-03 DE=-8.97D-03 OVMax= 1.95D-02

 Cycle   5  Pass 0  IDiag  1:
 E= -268.881174894132     Delta-E=       -0.004320123646 Rises=F Damp=F
 DIIS: error= 1.38D-03 at cycle   5 NSaved=   5.
 NSaved= 5 IEnMin= 5 EnMin= -268.881174894132     IErMin= 5 ErrMin= 1.38D-03
 ErrMax= 1.38D-03 EMaxC= 1.00D-01 BMatC= 1.63D-03 BMatP= 2.44D-02
 IDIUse=3 WtCom= 9.86D-01 WtEn= 1.38D-02
 Coeff-Com:  0.326D-02 0.626D-02 0.181D+00 0.280D+00 0.529D+00
 Coeff-En:   0.000D+00 0.000D+00 0.000D+00 0.000D+00 0.100D+01
 Coeff:      0.321D-02 0.617D-02 0.179D+00 0.276D+00 0.536D+00
 Gap=     0.264 Goal=   None    Shift=    0.000
 Gap=     0.137 Goal=   None    Shift=    0.000
 RMSDP=1.62D-04 MaxDP=4.01D-03 DE=-4.32D-03 OVMax= 9.79D-03

 Cycle   6  Pass 0  IDiag  1:
 E= -268.881514601194     Delta-E=       -0.000339707062 Rises=F Damp=F
 DIIS: error= 7.76D-04 at cycle   6 NSaved=   6.
 NSaved= 6 IEnMin= 6 EnMin= -268.881514601194     IErMin= 6 ErrMin= 7.76D-04
 ErrMax= 7.76D-04 EMaxC= 1.00D-01 BMatC= 4.74D-04 BMatP= 1.63D-03
 IDIUse=3 WtCom= 9.92D-01 WtEn= 7.76D-03
 Coeff-Com:  0.371D-02-0.309D-01 0.145D-01 0.231D-01 0.341D+00 0.649D+00
 Coeff-En:   0.000D+00 0.000D+00 0.000D+00 0.000D+00 0.155D-01 0.985D+00
 Coeff:      0.368D-02-0.306D-01 0.144D-01 0.230D-01 0.338D+00 0.651D+00
 Gap=     0.264 Goal=   None    Shift=    0.000
 Gap=     0.139 Goal=   None    Shift=    0.000
 RMSDP=9.54D-05 MaxDP=1.54D-03 DE=-3.40D-04 OVMax= 1.40D-02

 Cycle   7  Pass 0  IDiag  1:
 E= -268.881654707501     Delta-E=       -0.000140106307 Rises=F Damp=F
 DIIS: error= 2.29D-04 at cycle   7 NSaved=   7.
 NSaved= 7 IEnMin= 7 EnMin= -268.881654707501     IErMin= 7 ErrMin= 2.29D-04
 ErrMax= 2.29D-04 EMaxC= 1.00D-01 BMatC= 4.80D-05 BMatP= 4.74D-04
 IDIUse=3 WtCom= 9.98D-01 WtEn= 2.29D-03
 Coeff-Com:  0.129D-02-0.599D-02-0.324D-01-0.721D-01-0.901D-01 0.151D+00
 Coeff-Com:  0.105D+01
 Coeff-En:   0.000D+00 0.000D+00 0.000D+00 0.000D+00 0.000D+00 0.000D+00
 Coeff-En:   0.100D+01
 Coeff:      0.129D-02-0.598D-02-0.324D-01-0.720D-01-0.899D-01 0.151D+00
 Coeff:      0.105D+01
 Gap=     0.265 Goal=   None    Shift=    0.000
 Gap=     0.139 Goal=   None    Shift=    0.000
 RMSDP=7.22D-05 MaxDP=1.30D-03 DE=-1.40D-04 OVMax= 1.15D-02

 Cycle   8  Pass 0  IDiag  1:
 E= -268.881691190943     Delta-E=       -0.000036483442 Rises=F Damp=F
 DIIS: error= 1.12D-04 at cycle   8 NSaved=   8.
 NSaved= 8 IEnMin= 8 EnMin= -268.881691190943     IErMin= 8 ErrMin= 1.12D-04
 ErrMax= 1.12D-04 EMaxC= 1.00D-01 BMatC= 8.53D-06 BMatP= 4.80D-05
 IDIUse=3 WtCom= 9.99D-01 WtEn= 1.12D-03
 Coeff-Com:  0.226D-03 0.237D-02-0.126D-01-0.340D-01-0.839D-01-0.303D-01
 Coeff-Com:  0.431D+00 0.728D+00
 Coeff-En:   0.000D+00 0.000D+00 0.000D+00 0.000D+00 0.000D+00 0.000D+00
 Coeff-En:   0.000D+00 0.100D+01
 Coeff:      0.226D-03 0.237D-02-0.126D-01-0.339D-01-0.838D-01-0.303D-01
 Coeff:      0.430D+00 0.728D+00
 Gap=     0.265 Goal=   None    Shift=    0.000
 Gap=     0.139 Goal=   None    Shift=    0.000
 RMSDP=2.36D-05 MaxDP=4.49D-04 DE=-3.65D-05 OVMax= 3.89D-03

 Cycle   9  Pass 0  IDiag  1:
 E= -268.881696399201     Delta-E=       -0.000005208257 Rises=F Damp=F
 DIIS: error= 4.13D-05 at cycle   9 NSaved=   9.
 NSaved= 9 IEnMin= 9 EnMin= -268.881696399201     IErMin= 9 ErrMin= 4.13D-05
 ErrMax= 4.13D-05 EMaxC= 1.00D-01 BMatC= 1.31D-06 BMatP= 8.53D-06
 IDIUse=1 WtCom= 1.00D+00 WtEn= 0.00D+00
 Coeff-Com: -0.146D-03 0.159D-02 0.381D-02 0.451D-02-0.308D-02-0.357D-01
 Coeff-Com: -0.113D+00 0.185D+00 0.956D+00
 Coeff:     -0.146D-03 0.159D-02 0.381D-02 0.451D-02-0.308D-02-0.357D-01
 Coeff:     -0.113D+00 0.185D+00 0.956D+00
 Gap=     0.265 Goal=   None    Shift=    0.000
 Gap=     0.139 Goal=   None    Shift=    0.000
 RMSDP=1.37D-05 MaxDP=2.98D-04 DE=-5.21D-06 OVMax= 2.25D-03

 Cycle  10  Pass 0  IDiag  1:
 E= -268.881697650271     Delta-E=       -0.000001251071 Rises=F Damp=F
 DIIS: error= 1.60D-05 at cycle  10 NSaved=  10.
 NSaved=10 IEnMin=10 EnMin= -268.881697650271     IErMin=10 ErrMin= 1.60D-05
 ErrMax= 1.60D-05 EMaxC= 1.00D-01 BMatC= 1.94D-07 BMatP= 1.31D-06
 IDIUse=1 WtCom= 1.00D+00 WtEn= 0.00D+00
 Coeff-Com: -0.121D-04-0.137D-03 0.377D-02 0.805D-02 0.163D-01 0.222D-02
 Coeff-Com: -0.119D+00-0.108D+00 0.248D+00 0.949D+00
 Coeff:     -0.121D-04-0.137D-03 0.377D-02 0.805D-02 0.163D-01 0.222D-02
 Coeff:     -0.119D+00-0.108D+00 0.248D+00 0.949D+00
 Gap=     0.265 Goal=   None    Shift=    0.000
 Gap=     0.139 Goal=   None    Shift=    0.000
 RMSDP=5.90D-06 MaxDP=1.36D-04 DE=-1.25D-06 OVMax= 9.33D-04

 Initial convergence to 1.0D-05 achieved.  Increase integral accuracy.
 Cycle  11  Pass 1  IDiag  1:
 E= -268.881734334278     Delta-E=       -0.000036684007 Rises=F Damp=F
 DIIS: error= 9.24D-06 at cycle   1 NSaved=   1.
 NSaved= 1 IEnMin= 1 EnMin= -268.881734334278     IErMin= 1 ErrMin= 9.24D-06
 ErrMax= 9.24D-06 EMaxC= 1.00D-01 BMatC= 6.84D-08 BMatP= 6.84D-08
 IDIUse=1 WtCom= 1.00D+00 WtEn= 0.00D+00
 Coeff-Com:  0.100D+01
 Coeff:      0.100D+01
 Gap=     0.265 Goal=   None    Shift=    0.000
 Gap=     0.139 Goal=   None    Shift=    0.000
 RMSDP=5.90D-06 MaxDP=1.36D-04 DE=-3.67D-05 OVMax= 1.32D-04

 Cycle  12  Pass 1  IDiag  1:
 E= -268.881734359056     Delta-E=       -0.000000024778 Rises=F Damp=F
 DIIS: error= 3.54D-06 at cycle   2 NSaved=   2.
 NSaved= 2 IEnMin= 2 EnMin= -268.881734359056     IErMin= 2 ErrMin= 3.54D-06
 ErrMax= 3.54D-06 EMaxC= 1.00D-01 BMatC= 8.34D-09 BMatP= 6.84D-08
 IDIUse=1 WtCom= 1.00D+00 WtEn= 0.00D+00
 Coeff-Com:  0.128D+00 0.872D+00
 Coeff:      0.128D+00 0.872D+00
 Gap=     0.265 Goal=   None    Shift=    0.000
 Gap=     0.139 Goal=   None    Shift=    0.000
 RMSDP=6.89D-07 MaxDP=1.19D-05 DE=-2.48D-08 OVMax= 7.10D-05

 Cycle  13  Pass 1  IDiag  1:
 E= -268.881734362026     Delta-E=       -0.000000002970 Rises=F Damp=F
 DIIS: error= 2.66D-06 at cycle   3 NSaved=   3.
 NSaved= 3 IEnMin= 3 EnMin= -268.881734362026     IErMin= 3 ErrMin= 2.66D-06
 ErrMax= 2.66D-06 EMaxC= 1.00D-01 BMatC= 4.64D-09 BMatP= 8.34D-09
 IDIUse=1 WtCom= 1.00D+00 WtEn= 0.00D+00
 Coeff-Com: -0.365D-01 0.413D+00 0.623D+00
 Coeff:     -0.365D-01 0.413D+00 0.623D+00
 Gap=     0.265 Goal=   None    Shift=    0.000
 Gap=     0.139 Goal=   None    Shift=    0.000
 RMSDP=2.96D-07 MaxDP=6.33D-06 DE=-2.97D-09 OVMax= 3.32D-05

 Cycle  14  Pass 1  IDiag  1:
 E= -268.881734363680     Delta-E=       -0.000000001654 Rises=F Damp=F
 DIIS: error= 9.74D-07 at cycle   4 NSaved=   4.
 NSaved= 4 IEnMin= 4 EnMin= -268.881734363680     IErMin= 4 ErrMin= 9.74D-07
 ErrMax= 9.74D-07 EMaxC= 1.00D-01 BMatC= 3.89D-10 BMatP= 4.64D-09
 IDIUse=1 WtCom= 1.00D+00 WtEn= 0.00D+00
 Coeff-Com: -0.207D-01 0.317D-01 0.152D+00 0.838D+00
 Coeff:     -0.207D-01 0.317D-01 0.152D+00 0.838D+00
 Gap=     0.265 Goal=   None    Shift=    0.000
 Gap=     0.139 Goal=   None    Shift=    0.000
 RMSDP=1.97D-07 MaxDP=4.29D-06 DE=-1.65D-09 OVMax= 3.40D-05

 Cycle  15  Pass 1  IDiag  1:
 E= -268.881734364039     Delta-E=       -0.000000000359 Rises=F Damp=F
 DIIS: error= 6.44D-07 at cycle   5 NSaved=   5.
 NSaved= 5 IEnMin= 5 EnMin= -268.881734364039     IErMin= 5 ErrMin= 6.44D-07
 ErrMax= 6.44D-07 EMaxC= 1.00D-01 BMatC= 3.76D-10 BMatP= 3.89D-10
 IDIUse=1 WtCom= 1.00D+00 WtEn= 0.00D+00
 Coeff-Com: -0.834D-03-0.139D+00-0.138D+00 0.614D+00 0.664D+00
 Coeff:     -0.834D-03-0.139D+00-0.138D+00 0.614D+00 0.664D+00
 Gap=     0.265 Goal=   None    Shift=    0.000
 Gap=     0.139 Goal=   None    Shift=    0.000
 RMSDP=1.50D-07 MaxDP=3.36D-06 DE=-3.59D-10 OVMax= 2.22D-05

 Cycle  16  Pass 1  IDiag  1:
 E= -268.881734364228     Delta-E=       -0.000000000189 Rises=F Damp=F
 DIIS: error= 3.74D-07 at cycle   6 NSaved=   6.
 NSaved= 6 IEnMin= 6 EnMin= -268.881734364228     IErMin= 6 ErrMin= 3.74D-07
 ErrMax= 3.74D-07 EMaxC= 1.00D-01 BMatC= 9.27D-11 BMatP= 3.76D-10
 IDIUse=1 WtCom= 1.00D+00 WtEn= 0.00D+00
 Coeff-Com:  0.746D-02-0.113D+00-0.158D+00 0.136D+00 0.458D+00 0.670D+00
 Coeff:      0.746D-02-0.113D+00-0.158D+00 0.136D+00 0.458D+00 0.670D+00
 Gap=     0.265 Goal=   None    Shift=    0.000
 Gap=     0.139 Goal=   None    Shift=    0.000
 RMSDP=9.46D-08 MaxDP=2.03D-06 DE=-1.89D-10 OVMax= 1.63D-05

 Cycle  17  Pass 1  IDiag  1:
 E= -268.881734364277     Delta-E=       -0.000000000049 Rises=F Damp=F
 DIIS: error= 1.15D-07 at cycle   7 NSaved=   7.
 NSaved= 7 IEnMin= 7 EnMin= -268.881734364277     IErMin= 7 ErrMin= 1.15D-07
 ErrMax= 1.15D-07 EMaxC= 1.00D-01 BMatC= 9.92D-12 BMatP= 9.27D-11
 IDIUse=1 WtCom= 1.00D+00 WtEn= 0.00D+00
 Coeff-Com:  0.332D-02-0.377D-01-0.578D-01 0.214D-01 0.122D+00 0.327D+00
 Coeff-Com:  0.621D+00
 Coeff:      0.332D-02-0.377D-01-0.578D-01 0.214D-01 0.122D+00 0.327D+00
 Coeff:      0.621D+00
 Gap=     0.265 Goal=   None    Shift=    0.000
 Gap=     0.139 Goal=   None    Shift=    0.000
 RMSDP=1.77D-08 MaxDP=3.12D-07 DE=-4.94D-11 OVMax= 2.75D-06

 Cycle  18  Pass 1  IDiag  1:
 E= -268.881734364279     Delta-E=       -0.000000000002 Rises=F Damp=F
 DIIS: error= 6.83D-08 at cycle   8 NSaved=   8.
 NSaved= 8 IEnMin= 8 EnMin= -268.881734364279     IErMin= 8 ErrMin= 6.83D-08
 ErrMax= 6.83D-08 EMaxC= 1.00D-01 BMatC= 3.86D-12 BMatP= 9.92D-12
 IDIUse=1 WtCom= 1.00D+00 WtEn= 0.00D+00
 Coeff-Com: -0.791D-05 0.102D-01 0.984D-02-0.320D-01-0.783D-01 0.307D-01
 Coeff-Com:  0.430D+00 0.630D+00
 Coeff:     -0.791D-05 0.102D-01 0.984D-02-0.320D-01-0.783D-01 0.307D-01
 Coeff:      0.430D+00 0.630D+00
 Gap=     0.265 Goal=   None    Shift=    0.000
 Gap=     0.139 Goal=   None    Shift=    0.000
 RMSDP=1.23D-08 MaxDP=2.54D-07 DE=-1.65D-12 OVMax= 1.57D-06

 Cycle  19  Pass 1  IDiag  1:
 E= -268.881734364280     Delta-E=       -0.000000000001 Rises=F Damp=F
 DIIS: error= 1.79D-08 at cycle   9 NSaved=   9.
 NSaved= 9 IEnMin= 9 EnMin= -268.881734364280     IErMin= 9 ErrMin= 1.79D-08
 ErrMax= 1.79D-08 EMaxC= 1.00D-01 BMatC= 2.26D-13 BMatP= 3.86D-12
 IDIUse=1 WtCom= 1.00D+00 WtEn= 0.00D+00
 Coeff-Com: -0.655D-03 0.108D-01 0.140D-01-0.110D-01-0.540D-01-0.463D-01
 Coeff-Com:  0.305D-01 0.188D+00 0.868D+00
 Coeff:     -0.655D-03 0.108D-01 0.140D-01-0.110D-01-0.540D-01-0.463D-01
 Coeff:      0.305D-01 0.188D+00 0.868D+00
 Gap=     0.265 Goal=   None    Shift=    0.000
 Gap=     0.139 Goal=   None    Shift=    0.000
 RMSDP=4.00D-09 MaxDP=6.32D-08 DE=-1.25D-12 OVMax= 6.42D-07

 SCF Done:  E(UB3LYP) =  -268.881734364     A.U. after   19 cycles
             Convg  =    0.3996D-08             -V/T =  2.0034
 <Sx>= 0.0000 <Sy>= 0.0000 <Sz>= 0.5000 <S**2>= 0.7566 S= 0.5033
 <L.S>= 0.000000000000E+00
 KE= 2.679768545586D+02 PE=-1.009960513160D+03 EE= 2.832452398743D+02
 Annihilation of the first spin contaminant:
 S**2 before annihilation     0.7566,   after     0.7500
 Leave Link  502 at Sat Jun  6 17:52:13 2015, MaxMem= 3758096384 cpu:     157.4
 (Enter /share/apps/g09/l801.exe)
 Range of M.O.s used for correlation:     1   132
 NBasis=   132 NAE=    21 NBE=    20 NFC=     0 NFV=     0
 NROrb=    132 NOA=    21 NOB=    20 NVA=   111 NVB=   112
 Leave Link  801 at Sat Jun  6 17:52:14 2015, MaxMem= 3758096384 cpu:       0.2
 (Enter /share/apps/g09/l1101.exe)
 Using compressed storage, NAtomX=    12.
 Will process  13 centers per pass.
 Leave Link 1101 at Sat Jun  6 17:52:15 2015, MaxMem= 3758096384 cpu:       9.2
 (Enter /share/apps/g09/l1102.exe)
 Symmetrizing basis deriv contribution to polar:
 IMax=3 JMax=2 DiffMx= 0.00D+00
 Leave Link 1102 at Sat Jun  6 17:52:15 2015, MaxMem= 3758096384 cpu:       0.8
 (Enter /share/apps/g09/l1110.exe)
 Forming Gx(P) for the SCF density, NAtomX=    12.
 Integral derivatives from FoFDir/FoFCou, PRISM(SPDF).
 Do as many integral derivatives as possible in FoFDir.
 G2DrvN: MDV=    3758096184.
 G2DrvN: will do    13 centers at a time, making    1 passes doing MaxLOS=2.
 Calling FoFCou, ICntrl=  3107 FMM=F I1Cent=   0 AccDes= 0.00D+00.
 FoFCou: FMM=F IPFlag=           0 FMFlag=      100000 FMFlg1=           0
         NFxFlg=           0 DoJE=F BraDBF=F KetDBF=F FulRan=T
         Omega=  0.000000  0.000000  1.000000  0.000000  0.000000 ICntrl=    3107 IOpCl=  1
         NMat0=    1 NMatS0=    1 NMatT0=    0 NMatD0=    1 NMtDS0=    0 NMtDT0=    0
         I1Cent=           0 NGrid=           0.
 Symmetry not used in FoFCou.
 FoFDir/FoFCou used for L=0 through L=2.
 End of G2Drv Frequency-dependent properties file   721 does not exist.
 End of G2Drv Frequency-dependent properties file   722 does not exist.
 Leave Link 1110 at Sat Jun  6 17:52:33 2015, MaxMem= 3758096384 cpu:     191.5
 (Enter /share/apps/g09/l1002.exe)
 Minotr:  UHF open shell wavefunction.
          IDoAtm=111111111111
          Direct CPHF calculation.
          Differentiating once with respect to nuclear coordinates.
          Requested convergence is 1.0D-06 RMS, and 1.0D-05 maximum.
          Secondary convergence is 1.0D-12 RMS, and 1.0D-12 maximum.
          NewPWx=T KeepS1=F KeepF1=F KeepIn=T MapXYZ=F SortEE=F KeepMc=T.
          MDV=    3758096260 using IRadAn=       2.
 Generate precomputed XC quadrature information.
          Keep R1 and R2 ints in memory in canonical form, NReq=90192522.
 Symmetry not used in FoFDir.
 MinBra= 0 MaxBra= 2 Meth= 1.
 IRaf=       0 NMat=   1 IRICut=       1 DoRegI=T DoRafI=F ISym2E= 0 JSym2E=0.
          Solving linear equations simultaneously, MaxMat=       0.
          There are    39 degrees of freedom in the 1st order CPHF.  IDoFFX=5.
     33 vectors produced by pass  0 Test12= 1.17D-10 2.56D-07 XBig12= 3.95D-01 2.85D-01.
 AX will form    33 AO Fock derivatives at one time.
     33 vectors produced by pass  1 Test12= 1.17D-10 2.56D-07 XBig12= 8.33D-02 8.15D-02.
     33 vectors produced by pass  2 Test12= 1.17D-10 2.56D-07 XBig12= 2.44D-03 7.11D-03.
     33 vectors produced by pass  3 Test12= 1.17D-10 2.56D-07 XBig12= 3.28D-05 1.04D-03.
     32 vectors produced by pass  4 Test12= 1.17D-10 2.56D-07 XBig12= 1.91D-07 7.32D-05.
     11 vectors produced by pass  5 Test12= 1.17D-10 2.56D-07 XBig12= 1.31D-09 4.18D-06.
      1 vectors produced by pass  6 Test12= 1.17D-10 2.56D-07 XBig12= 7.09D-12 3.12D-07.
 Inverted reduced A of dimension   176 with in-core refinement.
 End of Minotr Frequency-dependent properties file   721 does not exist.
 End of Minotr Frequency-dependent properties file   722 does not exist.
 Leave Link 1002 at Sat Jun  6 17:52:52 2015, MaxMem= 3758096384 cpu:     203.1
 (Enter /share/apps/g09/l601.exe)
 Copying SCF densities to generalized density rwf, IOpCl= 1 IROHF=0.

 **********************************************************************

            Population analysis using the SCF density.

 **********************************************************************

 Orbital symmetries:
 Alpha Orbitals:
       Occupied  (A) (A) (A) (A) (A) (A) (A) (A) (A) (A) (A) (A)
                 (A) (A) (A) (A) (A) (A) (A) (A) (A)
       Virtual   (A) (A) (A) (A) (A) (A) (A) (A) (A) (A) (A) (A)
                 (A) (A) (A) (A) (A) (A) (A) (A) (A) (A) (A) (A)
                 (A) (A) (A) (A) (A) (A) (A) (A) (A) (A) (A) (A)
                 (A) (A) (A) (A) (A) (A) (A) (A) (A) (A) (A) (A)
                 (A) (A) (A) (A) (A) (A) (A) (A) (A) (A) (A) (A)
                 (A) (A) (A) (A) (A) (A) (A) (A) (A) (A) (A) (A)
                 (A) (A) (A) (A) (A) (A) (A) (A) (A) (A) (A) (A)
                 (A) (A) (A) (A) (A) (A) (A) (A) (A) (A) (A) (A)
                 (A) (A) (A) (A) (A) (A) (A) (A) (A) (A) (A) (A)
                 (A) (A) (A)
 Beta  Orbitals:
       Occupied  (A) (A) (A) (A) (A) (A) (A) (A) (A) (A) (A) (A)
                 (A) (A) (A) (A) (A) (A) (A) (A)
       Virtual   (A) (A) (A) (A) (A) (A) (A) (A) (A) (A) (A) (A)
                 (A) (A) (A) (A) (A) (A) (A) (A) (A) (A) (A) (A)
                 (A) (A) (A) (A) (A) (A) (A) (A) (A) (A) (A) (A)
                 (A) (A) (A) (A) (A) (A) (A) (A) (A) (A) (A) (A)
                 (A) (A) (A) (A) (A) (A) (A) (A) (A) (A) (A) (A)
                 (A) (A) (A) (A) (A) (A) (A) (A) (A) (A) (A) (A)
                 (A) (A) (A) (A) (A) (A) (A) (A) (A) (A) (A) (A)
                 (A) (A) (A) (A) (A) (A) (A) (A) (A) (A) (A) (A)
                 (A) (A) (A) (A) (A) (A) (A) (A) (A) (A) (A) (A)
                 (A) (A) (A) (A)
 The electronic state is 2-A.
 Alpha  occ. eigenvalues --  -19.18765 -19.17132 -10.23537 -10.19360 -10.19318
 Alpha  occ. eigenvalues --   -1.13483  -0.89522  -0.80363  -0.67867  -0.61913
 Alpha  occ. eigenvalues --   -0.53694  -0.50478  -0.46330  -0.46155  -0.41373
 Alpha  occ. eigenvalues --   -0.41039  -0.38056  -0.36717  -0.34160  -0.26981
 Alpha  occ. eigenvalues --   -0.22892
 Alpha virt. eigenvalues --    0.03559   0.04154   0.06672   0.07120   0.08967
 Alpha virt. eigenvalues --    0.11322   0.13406   0.14505   0.18004   0.20441
 Alpha virt. eigenvalues --    0.22573   0.28686   0.29364   0.32125   0.34581
 Alpha virt. eigenvalues --    0.41879   0.43813   0.45800   0.47768   0.49609
 Alpha virt. eigenvalues --    0.52979   0.54606   0.56752   0.58237   0.58825
 Alpha virt. eigenvalues --    0.59764   0.60830   0.69266   0.72460   0.77718
 Alpha virt. eigenvalues --    0.79869   0.84208   0.92239   0.93008   0.97825
 Alpha virt. eigenvalues --    1.02018   1.04649   1.14108   1.18191   1.23731
 Alpha virt. eigenvalues --    1.31838   1.34293   1.39769   1.41253   1.42539
 Alpha virt. eigenvalues --    1.46355   1.47657   1.48945   1.52281   1.55918
 Alpha virt. eigenvalues --    1.58054   1.60210   1.63585   1.65418   1.68410
 Alpha virt. eigenvalues --    1.69623   1.75287   1.78389   1.87494   1.91648
 Alpha virt. eigenvalues --    1.95561   2.01160   2.04105   2.08311   2.13523
 Alpha virt. eigenvalues --    2.19826   2.22932   2.28439   2.34818   2.38010
 Alpha virt. eigenvalues --    2.43387   2.44345   2.48102   2.50284   2.53410
 Alpha virt. eigenvalues --    2.57397   2.58486   2.60688   2.65449   2.66783
 Alpha virt. eigenvalues --    2.68801   2.75785   2.77371   2.82202   2.85591
 Alpha virt. eigenvalues --    2.97058   3.00631   3.15320   3.17635   3.23026
 Alpha virt. eigenvalues --    3.29151   3.39876   3.62685   3.67923   3.77968
 Alpha virt. eigenvalues --    3.83662   3.87693   3.90889   4.12282   4.19932
 Alpha virt. eigenvalues --    4.69515   4.80061   4.88431   5.16378   5.27922
 Alpha virt. eigenvalues --    5.75095  23.76121  23.81670  23.84799  49.76681
 Alpha virt. eigenvalues --   49.81582
  Beta  occ. eigenvalues --  -19.18503 -19.16005 -10.23474 -10.19369 -10.18412
  Beta  occ. eigenvalues --   -1.12264  -0.87766  -0.79297  -0.66536  -0.60873
  Beta  occ. eigenvalues --   -0.52418  -0.49800  -0.45711  -0.45296  -0.40456
  Beta  occ. eigenvalues --   -0.39184  -0.36891  -0.36112  -0.32086  -0.25484
  Beta virt. eigenvalues --   -0.11546   0.03840   0.04935   0.06790   0.07431
  Beta virt. eigenvalues --    0.09143   0.11450   0.13643   0.14898   0.18647
  Beta virt. eigenvalues --    0.21075   0.23354   0.29065   0.30064   0.32461
  Beta virt. eigenvalues --    0.34772   0.42323   0.44091   0.46402   0.49526
  Beta virt. eigenvalues --    0.50105   0.53752   0.55290   0.57156   0.58463
  Beta virt. eigenvalues --    0.59353   0.60155   0.61318   0.69653   0.73444
  Beta virt. eigenvalues --    0.78191   0.81026   0.84764   0.92844   0.93431
  Beta virt. eigenvalues --    0.98790   1.02777   1.05374   1.14693   1.18638
  Beta virt. eigenvalues --    1.24071   1.32295   1.34721   1.40134   1.42278
  Beta virt. eigenvalues --    1.43120   1.46824   1.48012   1.49648   1.53016
  Beta virt. eigenvalues --    1.56406   1.58542   1.60414   1.63842   1.65655
  Beta virt. eigenvalues --    1.68725   1.69936   1.75468   1.78899   1.88237
  Beta virt. eigenvalues --    1.91994   1.96786   2.01754   2.05926   2.08596
  Beta virt. eigenvalues --    2.13884   2.20478   2.23390   2.29252   2.35604
  Beta virt. eigenvalues --    2.38294   2.43530   2.44788   2.48646   2.50687
  Beta virt. eigenvalues --    2.53841   2.57891   2.58737   2.61213   2.65721
  Beta virt. eigenvalues --    2.67211   2.69283   2.76074   2.77870   2.82961
  Beta virt. eigenvalues --    2.85983   2.98298   3.02251   3.16116   3.18671
  Beta virt. eigenvalues --    3.24045   3.29877   3.42355   3.63478   3.68759
  Beta virt. eigenvalues --    3.79181   3.85285   3.88395   3.91243   4.12758
  Beta virt. eigenvalues --    4.20634   4.70079   4.80896   4.89511   5.20020
  Beta virt. eigenvalues --    5.28341   5.75862  23.76321  23.82390  23.84963
  Beta virt. eigenvalues --   49.77502  49.82139
          Condensed to atoms (all electrons):
              1          2          3          4          5          6
     1  O    8.107402   0.160149   0.076686  -0.044835   0.005849   0.009395
     2  H    0.160149   0.459947  -0.036719  -0.014180  -0.001735   0.000436
     3  O    0.076686  -0.036719   8.015299   0.236053  -0.018269  -0.033404
     4  C   -0.044835  -0.014180   0.236053   4.845560   0.391053   0.395567
     5  H    0.005849  -0.001735  -0.018269   0.391053   0.562754  -0.026868
     6  H    0.009395   0.000436  -0.033404   0.395567  -0.026868   0.594095
     7  C   -0.024534  -0.002357  -0.049056   0.335941  -0.037916  -0.063342
     8  H   -0.000557   0.003243   0.004665  -0.034808   0.000111  -0.001362
     9  H   -0.000414   0.001176   0.005089  -0.035671  -0.008932   0.009493
    10  C   -0.065649   0.208691   0.000125  -0.063498   0.009489  -0.006040
    11  H    0.001794  -0.008900   0.000377   0.006174  -0.000185  -0.000177
    12  H    0.002161  -0.009893   0.000409   0.002040  -0.000320   0.002803
              7          8          9         10         11         12
     1  O   -0.024534  -0.000557  -0.000414  -0.065649   0.001794   0.002161
     2  H   -0.002357   0.003243   0.001176   0.208691  -0.008900  -0.009893
     3  O   -0.049056   0.004665   0.005089   0.000125   0.000377   0.000409
     4  C    0.335941  -0.034808  -0.035671  -0.063498   0.006174   0.002040
     5  H   -0.037916   0.000111  -0.008932   0.009489  -0.000185  -0.000320
     6  H   -0.063342  -0.001362   0.009493  -0.006040  -0.000177   0.002803
     7  C    5.032724   0.383520   0.400541   0.321521  -0.032361  -0.035392
     8  H    0.383520   0.583402  -0.026750  -0.033549   0.001979  -0.009088
     9  H    0.400541  -0.026750   0.569668  -0.040567  -0.009959   0.006929
    10  C    0.321521  -0.033549  -0.040567   5.218191   0.396780   0.391657
    11  H   -0.032361   0.001979  -0.009959   0.396780   0.532867  -0.027326
    12  H   -0.035392  -0.009088   0.006929   0.391657  -0.027326   0.543528
 Mulliken atomic charges:
              1
     1  O   -0.227445
     2  H    0.240143
     3  O   -0.201256
     4  C   -0.019396
     5  H    0.124968
     6  H    0.119404
     7  C   -0.229290
     8  H    0.129195
     9  H    0.129398
    10  C   -0.337150
    11  H    0.138938
    12  H    0.132492
 Sum of Mulliken atomic charges =   0.00000
 Mulliken charges with hydrogens summed into heavy atoms:
              1
     1  O    0.012698
     3  O   -0.201256
     4  C    0.224976
     7  C    0.029303
    10  C   -0.065721
 Sum of Mulliken charges with hydrogens summed into heavy atoms =   0.00000
          Atomic-Atomic Spin Densities.
              1          2          3          4          5          6
     1  O    0.475352  -0.020833  -0.043726   0.006930  -0.000187  -0.002885
     2  H   -0.020833  -0.058143   0.006477  -0.000582   0.000086   0.002708
     3  O   -0.043726   0.006477   0.118162  -0.013297  -0.000034  -0.000113
     4  C    0.006930  -0.000582  -0.013297   0.035491  -0.000508  -0.006538
     5  H   -0.000187   0.000086  -0.000034  -0.000508  -0.001975   0.001414
     6  H   -0.002885   0.002708  -0.000113  -0.006538   0.001414   0.004585
     7  C    0.010265  -0.004240  -0.004529   0.027053  -0.000684  -0.001812
     8  H   -0.001377   0.001433   0.001095  -0.012826   0.000932   0.003179
     9  H   -0.000518   0.000500   0.000367  -0.001505   0.000237   0.000126
    10  C   -0.081765   0.052752   0.016170  -0.015481   0.000185   0.004506
    11  H    0.002805  -0.001763  -0.000767   0.000981  -0.000026  -0.000236
    12  H    0.002767  -0.000543  -0.000476   0.001553  -0.000032  -0.000984
              7          8          9         10         11         12
     1  O    0.010265  -0.001377  -0.000518  -0.081765   0.002805   0.002767
     2  H   -0.004240   0.001433   0.000500   0.052752  -0.001763  -0.000543
     3  O   -0.004529   0.001095   0.000367   0.016170  -0.000767  -0.000476
     4  C    0.027053  -0.012826  -0.001505  -0.015481   0.000981   0.001553
     5  H   -0.000684   0.000932   0.000237   0.000185  -0.000026  -0.000032
     6  H   -0.001812   0.003179   0.000126   0.004506  -0.000236  -0.000984
     7  C   -0.024157   0.000462   0.000933  -0.037391   0.000380   0.001749
     8  H    0.000462   0.064881   0.001469  -0.012350  -0.002355  -0.003071
     9  H    0.000933   0.001469  -0.000101  -0.000051  -0.000125  -0.000443
    10  C   -0.037391  -0.012350  -0.000051   0.681557  -0.005335  -0.005018
    11  H    0.000380  -0.002355  -0.000125  -0.005335  -0.015372   0.004200
    12  H    0.001749  -0.003071  -0.000443  -0.005018   0.004200  -0.018899
 Mulliken atomic spin densities:
              1
     1  O    0.346829
     2  H   -0.022147
     3  O    0.079328
     4  C    0.021270
     5  H   -0.000592
     6  H    0.003950
     7  C   -0.031969
     8  H    0.041472
     9  H    0.000890
    10  C    0.597778
    11  H   -0.017614
    12  H   -0.019197
 Sum of Mulliken atomic spin densities =   1.00000
 APT atomic charges:
              1
     1  O   -0.188006
     2  H    0.137814
     3  O   -0.100678
     4  C   -0.612673
     5  H    0.449724
     6  H    0.297683
     7  C   -0.743085
     8  H    0.424193
     9  H    0.347330
    10  C   -0.851198
    11  H    0.450189
    12  H    0.388709
 Sum of APT charges=   0.00000
 APT Atomic charges with hydrogens summed into heavy atoms:
              1
     1  O   -0.050192
     2  H    0.000000
     3  O   -0.100678
     4  C    0.134734
     5  H    0.000000
     6  H    0.000000
     7  C    0.028438
     8  H    0.000000
     9  H    0.000000
    10  C   -0.012301
    11  H    0.000000
    12  H    0.000000
 Sum of APT charges=   0.00000
 Electronic spatial extent (au):  <R**2>=            411.9717
 Charge=              0.0000 electrons
 Dipole moment (field-independent basis, Debye):
    X=             -2.7728    Y=              1.4405    Z=              0.5650  Tot=              3.1753
 Quadrupole moment (field-independent basis, Debye-Ang):
   XX=            -34.0553   YY=            -29.6177   ZZ=            -30.8577
   XY=              1.9841   XZ=              0.6537   YZ=              0.4886
 Traceless Quadrupole moment (field-independent basis, Debye-Ang):
   XX=             -2.5450   YY=              1.8925   ZZ=              0.6525
   XY=              1.9841   XZ=              0.6537   YZ=              0.4886
 Octapole moment (field-independent basis, Debye-Ang**2):
  XXX=              5.0448  YYY=              1.4981  ZZZ=             -0.3648  XYY=              0.9956
  XXY=              0.6302  XXZ=              0.5452  XZZ=              0.9075  YZZ=             -0.6995
  YYZ=             -0.4930  XYZ=              0.0362
 Hexadecapole moment (field-independent basis, Debye-Ang**3):
 XXXX=           -280.4084 YYYY=           -185.5452 ZZZZ=            -59.4295 XXXY=             -2.3265
 XXXZ=             -0.7141 YYYX=              2.2003 YYYZ=             -2.0598 ZZZX=             -0.1415
 ZZZY=             -0.8679 XXYY=            -77.8372 XXZZ=            -53.9435 YYZZ=            -41.3609
 XXYZ=              1.7298 YYXZ=             -0.5302 ZZXY=              0.5134
 N-N= 1.898566843628D+02 E-N=-1.507027714860D+03  KE= 4.007675945684D+02
  Exact polarizability:   0.000   0.000   0.000   0.000   0.000   0.000
 Approx polarizability:  84.832   4.263  73.429  -1.672  -2.914  52.697
                          Isotropic Fermi Contact Couplings
        Atom                 a.u.       MegaHertz       Gauss      10(-4) cm-1
     1  O(17)              0.02274     -13.78474      -4.91874      -4.59810
     2  H(1)              -0.02511    -112.23951     -40.04985     -37.43907
     3  O(17)              0.02068     -12.53587      -4.47311      -4.18152
     4  C(13)              0.00683       7.67755       2.73954       2.56096
     5  H(1)              -0.00020      -0.91405      -0.32616      -0.30490
     6  H(1)               0.00044       1.97008       0.70297       0.65715
     7  C(13)             -0.00573      -6.44287      -2.29898      -2.14911
     8  H(1)               0.01917      85.70477      30.58159      28.58804
     9  H(1)               0.00011       0.47735       0.17033       0.15923
    10  C(13)              0.09255     104.04464      37.12571      34.70556
    11  H(1)              -0.00368     -16.43067      -5.86287      -5.48068
    12  H(1)              -0.00478     -21.36504      -7.62358      -7.12661
 --------------------------------------------------------
       Center         ----  Spin Dipole Couplings  ----
                      3XX-RR        3YY-RR        3ZZ-RR
 --------------------------------------------------------
     1   Atom        1.572792     -0.856828     -0.715964
     2   Atom        0.203552     -0.095035     -0.108517
     3   Atom        0.339326     -0.201997     -0.137330
     4   Atom        0.055589     -0.019059     -0.036530
     5   Atom       -0.002563      0.008972     -0.006409
     6   Atom       -0.003144      0.000865      0.002279
     7   Atom        0.024634      0.001153     -0.025787
     8   Atom       -0.003405      0.006492     -0.003087
     9   Atom       -0.003609      0.003792     -0.000183
    10   Atom        0.605438     -0.249237     -0.356201
    11   Atom        0.005349     -0.015578      0.010229
    12   Atom       -0.001840     -0.030728      0.032568
 --------------------------------------------------------
                        XY            XZ            YZ
 --------------------------------------------------------
     1   Atom        0.188432      0.605852      0.032335
     2   Atom       -0.004919      0.013950      0.000256
     3   Atom        0.168871      0.257790      0.111681
     4   Atom        0.011684      0.010540      0.004077
     5   Atom        0.001608     -0.000196     -0.000765
     6   Atom        0.000860      0.001287      0.006936
     7   Atom       -0.018263      0.004451     -0.003451
     8   Atom       -0.004817     -0.002888      0.003337
     9   Atom       -0.002600      0.001513     -0.007872
    10   Atom       -0.326763     -0.049337      0.016254
    11   Atom        0.005647      0.022756      0.037929
    12   Atom       -0.004705     -0.019467     -0.026546
 --------------------------------------------------------


 ---------------------------------------------------------------------------------
              Anisotropic Spin Dipole Couplings in Principal Axis System
 ---------------------------------------------------------------------------------

       Atom             a.u.   MegaHertz   Gauss  10(-4) cm-1        Axes

              Baa    -0.8828    63.880    22.794    21.308 -0.2105  0.7579  0.6174
     1 O(17)  Bbb    -0.8545    61.829    22.062    20.624 -0.1367 -0.6482  0.7491
              Bcc     1.7373  -125.709   -44.856   -41.932  0.9680  0.0733  0.2400
 
              Baa    -0.1092   -58.240   -20.782   -19.427 -0.0451 -0.0338  0.9984
     2 H(1)   Bbb    -0.0951   -50.740   -18.105   -16.925  0.0148  0.9993  0.0345
              Bcc     0.2043   108.981    38.887    36.352  0.9989 -0.0164  0.0445
 
              Baa    -0.2877    20.818     7.428     6.944  0.0881  0.7215 -0.6868
     3 O(17)  Bbb    -0.2205    15.957     5.694     5.323 -0.4725  0.6372  0.6088
              Bcc     0.5082   -36.775   -13.122   -12.267  0.8769  0.2709  0.3970
 
              Baa    -0.0381    -5.119    -1.827    -1.708 -0.0914 -0.1541  0.9838
     4 C(13)  Bbb    -0.0205    -2.752    -0.982    -0.918 -0.1689  0.9760  0.1372
              Bcc     0.0587     7.871     2.809     2.625  0.9814  0.1536  0.1153
 
              Baa    -0.0065    -3.442    -1.228    -1.148  0.0312  0.0463  0.9984
     5 H(1)   Bbb    -0.0028    -1.484    -0.529    -0.495  0.9903 -0.1371 -0.0246
              Bcc     0.0092     4.925     1.758     1.643  0.1357  0.9895 -0.0501
 
              Baa    -0.0054    -2.894    -1.033    -0.965  0.1059  0.7301 -0.6751
     6 H(1)   Bbb    -0.0033    -1.770    -0.632    -0.590  0.9861 -0.1644 -0.0231
              Bcc     0.0087     4.664     1.664     1.556  0.1278  0.6633  0.7374
 
              Baa    -0.0263    -3.535    -1.261    -1.179 -0.0553  0.0881  0.9946
     7 C(13)  Bbb    -0.0088    -1.177    -0.420    -0.393  0.4842  0.8735 -0.0505
              Bcc     0.0351     4.712     1.681     1.572  0.8732 -0.4788  0.0910
 
              Baa    -0.0063    -3.381    -1.206    -1.128  0.8137  0.1601  0.5588
     8 H(1)   Bbb    -0.0035    -1.857    -0.663    -0.619 -0.4360 -0.4678  0.7688
              Bcc     0.0098     5.238     1.869     1.747 -0.3845  0.8692  0.3109
 
              Baa    -0.0064    -3.408    -1.216    -1.137  0.1778  0.6300  0.7560
     9 H(1)   Bbb    -0.0042    -2.221    -0.793    -0.741  0.9622  0.0496 -0.2676
              Bcc     0.0106     5.630     2.009     1.878 -0.2061  0.7750 -0.5974
 
              Baa    -0.3600   -48.307   -17.237   -16.114  0.3188  0.8944  0.3138
    10 C(13)  Bbb    -0.3586   -48.117   -17.169   -16.050 -0.0573 -0.3123  0.9483
              Bcc     0.7186    96.424    34.407    32.164  0.9461 -0.3202 -0.0483
 
              Baa    -0.0444   -23.712    -8.461    -7.909  0.1928  0.7668 -0.6122
    11 H(1)   Bbb    -0.0041    -2.210    -0.788    -0.737  0.8686 -0.4237 -0.2571
              Bcc     0.0486    25.922     9.250     8.647  0.4565  0.4822  0.7477
 
              Baa    -0.0436   -23.250    -8.296    -7.755  0.2762  0.8834  0.3786
    12 H(1)   Bbb    -0.0044    -2.348    -0.838    -0.783  0.9043 -0.3722  0.2089
              Bcc     0.0480    25.597     9.134     8.538 -0.3255 -0.2847  0.9017
 

 ---------------------------------------------------------------------------------

 No NMR shielding tensors so no spin-rotation constants.
 Leave Link  601 at Sat Jun  6 17:52:53 2015, MaxMem= 3758096384 cpu:       8.1
 (Enter /share/apps/g09/l701.exe)
 Compute integral second derivatives.
 ... and contract with generalized density number  0.
 Leave Link  701 at Sat Jun  6 17:52:54 2015, MaxMem= 3758096384 cpu:       6.6
 (Enter /share/apps/g09/l702.exe)
 L702 exits ... SP integral derivatives will be done elsewhere.
 Leave Link  702 at Sat Jun  6 17:52:54 2015, MaxMem= 3758096384 cpu:       0.2
 (Enter /share/apps/g09/l703.exe)
 Compute integral second derivatives, UseDBF=F ICtDFT=           0.
 Integral derivatives from FoFDir, PRISM(SPDF).
 Calling FoFJK, ICntrl=    100147 FMM=F ISym2X=0 I1Cent= 0 IOpClX= 1 NMat=1 NMatS=1 NMatT=0.
 FoFCou: FMM=F IPFlag=           0 FMFlag=      100000 FMFlg1=         800
         NFxFlg=           0 DoJE=F BraDBF=F KetDBF=F FulRan=T
         Omega=  0.000000  0.000000  1.000000  0.000000  0.000000 ICntrl=  100147 IOpCl=  1
         NMat0=    1 NMatS0=    1 NMatT0=    0 NMatD0=    1 NMtDS0=    0 NMtDT0=    0
         I1Cent=           0 NGrid=           0.
 Symmetry not used in FoFCou.
 Leave Link  703 at Sat Jun  6 17:53:13 2015, MaxMem= 3758096384 cpu:     219.9
 (Enter /share/apps/g09/l716.exe)
 Dipole        =-1.09090574D+00 5.66744276D-01 2.22297592D-01
 Polarizability= 0.00000000D+00 0.00000000D+00 0.00000000D+00
                 0.00000000D+00 0.00000000D+00 0.00000000D+00
 ***** Axes restored to original set *****
 -------------------------------------------------------------------
 Center     Atomic                   Forces (Hartrees/Bohr)
 Number     Number              X              Y              Z
 -------------------------------------------------------------------
      1        8           0.001308107   -0.000931415   -0.000586832
      2        1           0.000905590    0.000134217    0.000929792
      3        8          -0.000917266    0.000457709    0.000871581
      4        6          -0.000582610    0.000193489   -0.000772639
      5        1           0.000008758    0.000016338   -0.000026550
      6        1          -0.000141219    0.000054566    0.000259416
      7        6          -0.000185031   -0.000447737    0.000430829
      8        1           0.000160774    0.000106855    0.000034776
      9        1          -0.000079565    0.000037139   -0.000142118
     10        6          -0.000883222    0.000654041   -0.001475973
     11        1           0.000149222   -0.000263762    0.000241170
     12        1           0.000256463   -0.000011440    0.000236546
 -------------------------------------------------------------------
 Cartesian Forces:  Max     0.001475973 RMS     0.000568776
 Force constants in Cartesian coordinates: 
                1             2             3             4             5 
      1  0.292198D+00
      2 -0.166939D-01  0.420662D-01
      3  0.320793D-01 -0.184539D-01  0.111036D+00
      4 -0.405011D-01 -0.787253D-03 -0.596011D-02  0.846954D-01
      5  0.474946D-02 -0.124350D-01 -0.222353D-01 -0.414406D-02  0.370174D-01
      6 -0.498343D-01 -0.852491D-03  0.435742D-01 -0.287714D-01  0.205673D-01
      7 -0.216079D+00 -0.274987D-01  0.319415D-01 -0.114078D-01 -0.534137D-02
      8  0.447923D-02 -0.374102D-01  0.147422D-01  0.252399D-02 -0.902275D-04
      9  0.372197D-02  0.209714D-01 -0.468092D-01  0.292174D-01  0.327122D-02
     10 -0.548106D-01  0.391248D-01 -0.125429D-01 -0.241143D-02  0.338470D-02
     11  0.199400D-01  0.177558D-02 -0.853148D-02  0.229964D-02  0.150778D-03
     12  0.666395D-02 -0.615527D-02 -0.359975D-02  0.497600D-02 -0.184009D-02
     13  0.435051D-03  0.455439D-02 -0.194705D-02  0.483021D-03 -0.464660D-03
     14  0.422120D-02 -0.332097D-02  0.167331D-02 -0.295190D-03 -0.186165D-03
     15 -0.456206D-02  0.423058D-02 -0.384931D-03 -0.496518D-03  0.423001D-04
     16  0.526057D-02  0.650728D-03 -0.457441D-03 -0.101951D-03  0.153898D-03
     17 -0.408486D-02  0.548476D-02  0.112327D-02 -0.114562D-03 -0.451166D-03
     18  0.143822D-02 -0.268655D-02  0.305957D-03 -0.152277D-03 -0.294082D-03
     19  0.472806D-02 -0.396183D-03 -0.342312D-02 -0.902280D-02  0.413575D-02
     20 -0.269736D-02 -0.442525D-03  0.191400D-02  0.505041D-02 -0.176770D-02
     21 -0.282874D-02 -0.733650D-03  0.111696D-01 -0.124291D-01  0.402720D-02
     22 -0.235389D-02  0.222859D-04  0.231051D-02 -0.180216D-02  0.114312D-02
     23 -0.272977D-03  0.338050D-03 -0.863448D-04  0.483101D-03  0.782449D-04
     24  0.397786D-02 -0.137227D-03 -0.301050D-02  0.136876D-02 -0.716104D-03
     25 -0.130353D-02  0.216686D-03  0.542079D-03 -0.269693D-03 -0.787440D-04
     26  0.459226D-03 -0.158734D-03 -0.399206D-03  0.450501D-04 -0.271113D-03
     27 -0.323930D-03  0.403165D-03 -0.209731D-03  0.369429D-03 -0.866977D-04
     28  0.170558D-01  0.402883D-03 -0.491524D-01 -0.215362D-01 -0.379994D-02
     29 -0.142244D-01  0.268972D-02  0.352846D-01 -0.249137D-02 -0.183247D-01
     30  0.170096D-01  0.303694D-02 -0.123047D+00  0.659934D-02 -0.517874D-02
     31 -0.303837D-02 -0.674755D-04  0.223076D-02  0.147843D-03 -0.332627D-02
     32  0.290864D-02  0.676148D-03 -0.356338D-02  0.260705D-04  0.118888D-02
     33 -0.452058D-02  0.756519D-03  0.366290D-02  0.326600D-03 -0.800696D-02
     34 -0.159051D-02  0.471809D-03  0.437878D-02  0.172676D-02  0.358812D-02
     35  0.121578D-02  0.737045D-03 -0.146776D-02 -0.259583D-02 -0.490920D-02
     36 -0.282121D-02 -0.379574D-03  0.731321D-02  0.495184D-02  0.104499D-01
                6             7             8             9            10 
      6 -0.827259D-01
      7  0.563927D-01  0.333821D+00
      8 -0.488132D-02 -0.353661D-01  0.231645D+00
      9 -0.171940D-01 -0.226845D-01 -0.124149D+00  0.197612D+00
     10 -0.300961D-02 -0.783731D-01 -0.100910D-02  0.191456D-02  0.621328D+00
     11  0.910234D-02  0.236789D-01 -0.156227D+00  0.633053D-01  0.598647D-01
     12 -0.125779D-02 -0.286335D-01  0.651506D-01 -0.987946D-01 -0.575898D-01
     13  0.374684D-04 -0.192107D-01  0.268970D-02  0.209513D-02 -0.280780D+00
     14  0.845211D-04  0.281700D-01 -0.246339D-02 -0.711314D-02  0.283089D-02
     15  0.444081D-03 -0.195562D-01  0.529286D-03  0.498203D-02  0.891977D-01
     16  0.449355D-03  0.422730D-02  0.182453D-01 -0.445805D-04 -0.121273D+00
     17 -0.217114D-02 -0.344179D-02 -0.377592D-01  0.774586D-02 -0.105027D+00
     18 -0.370540D-03  0.689641D-02  0.275661D-01  0.138826D-02 -0.270633D-01
     19 -0.868909D-02 -0.593964D-02  0.256179D-02 -0.103879D-01 -0.786369D-01
     20  0.659788D-02  0.108753D-01 -0.150924D-02  0.311299D-01 -0.504312D-02
     21 -0.103458D-01 -0.791176D-02  0.197028D-01 -0.407316D-01  0.898457D-02
     22 -0.349996D-02  0.281665D-02 -0.129357D-03  0.804248D-03 -0.140200D-03
     23 -0.230007D-02 -0.747212D-03  0.113703D-02 -0.645922D-03 -0.258071D-02
     24  0.319252D-02 -0.412252D-02 -0.554218D-03 -0.815359D-02 -0.109238D-01
     25 -0.949361D-03  0.827427D-03 -0.337803D-03 -0.596105D-04  0.117633D-02
     26  0.422041D-03  0.618905D-04  0.237160D-02  0.714903D-03 -0.404672D-02
     27 -0.301611D-03  0.119639D-02  0.235741D-03  0.358123D-02 -0.196825D-01
     28  0.530332D-01 -0.154174D-01  0.666047D-02 -0.335376D-02  0.632778D-03
     29 -0.377465D-01  0.130887D-01 -0.321553D-03  0.475260D-02  0.106606D-01
     30  0.933587D-01 -0.208503D-01  0.317205D-02  0.545046D-02  0.314274D-01
     31 -0.743442D-02  0.282536D-02 -0.145524D-03  0.621969D-04 -0.545452D-02
     32  0.724579D-02 -0.300089D-02  0.653334D-03 -0.331021D-03  0.180588D-02
     33 -0.141850D-01  0.386044D-02 -0.565888D-03  0.800547D-03  0.511861D-03
     34 -0.772453D-02  0.191001D-02 -0.172599D-03 -0.128524D-02 -0.125761D-02
     35  0.393168D-02 -0.478699D-03 -0.254832D-04  0.347892D-03  0.352081D-04
     36 -0.141890D-01  0.347126D-02 -0.948306D-03 -0.213173D-02 -0.122410D-02
               11            12            13            14            15 
     11  0.515036D+00
     12  0.342782D-01  0.403148D+00
     13  0.117982D-01  0.825405D-01  0.307093D+00
     14 -0.530932D-01 -0.697492D-03 -0.183091D-01  0.537875D-01
     15 -0.349018D-02 -0.774373D-01 -0.868635D-01  0.220986D-02  0.834818D-01
     16 -0.112826D+00 -0.246981D-01 -0.114611D-01 -0.237892D-01 -0.580673D-02
     17 -0.220340D+00 -0.458293D-01  0.665795D-03  0.450040D-02  0.273387D-03
     18 -0.489532D-01 -0.585475D-01  0.505883D-02  0.879509D-02  0.271378D-02
     19 -0.868952D-02 -0.392987D-02  0.226918D-02  0.586197D-02  0.291876D-01
     20 -0.789363D-01 -0.311085D-01 -0.156402D-02  0.207040D-04 -0.255201D-02
     21 -0.324663D-01 -0.124700D+00 -0.140471D-02 -0.446663D-02 -0.100865D-01
     22  0.131428D-03 -0.102194D-02 -0.223960D-04 -0.228530D-03 -0.353679D-03
     23  0.375238D-02 -0.483085D-02  0.989817D-04  0.125219D-03  0.632959D-03
     24  0.259001D-01 -0.165835D-01  0.874416D-03  0.232375D-04  0.707444D-03
     25  0.235076D-02 -0.110160D-03  0.730244D-03  0.620480D-03 -0.287797D-03
     26 -0.859493D-02 -0.145159D-02  0.377691D-03  0.261243D-03 -0.234345D-03
     27 -0.287953D-01 -0.994947D-02  0.160854D-03  0.306890D-03  0.143395D-02
     28 -0.148904D-02  0.227049D-01  0.126943D-03  0.671907D-03 -0.231216D-02
     29 -0.261046D-02 -0.987381D-02  0.471310D-03  0.321463D-03 -0.127667D-02
     30 -0.134688D-01 -0.106126D-01 -0.801637D-03 -0.426980D-03 -0.564625D-02
     31  0.244700D-02 -0.132823D-02  0.203176D-03  0.545184D-05  0.148874D-02
     32 -0.116303D-02  0.272921D-02 -0.281666D-03  0.158299D-03 -0.445132D-03
     33  0.917265D-03 -0.265696D-02  0.206984D-03 -0.876865D-04 -0.258932D-03
     34  0.494185D-03  0.426196D-03  0.133559D-03  0.240042D-03  0.364564D-03
     35  0.250536D-03 -0.371126D-03 -0.366199D-04 -0.111117D-03  0.799537D-04
     36  0.220202D-02  0.991631D-03  0.426441D-04 -0.300975D-03  0.507864D-04
               16            17            18            19            20 
     16  0.120143D+00
     17  0.115458D+00  0.251105D+00
     18  0.300544D-01  0.425732D-01  0.674412D-01
     19  0.684418D-03 -0.342238D-02 -0.160327D-01  0.506484D+00
     20  0.123296D-02 -0.408627D-02 -0.270027D-01  0.365921D-01  0.574146D+00
     21  0.126632D-02 -0.307337D-02 -0.971918D-02  0.395918D-01 -0.331239D-01
     22  0.133838D-03 -0.153628D-03 -0.206714D-04 -0.713801D-01  0.662017D-01
     23 -0.140707D-03  0.696504D-03  0.627699D-03  0.623506D-01 -0.201439D+00
     24 -0.671749D-03 -0.373825D-03  0.172308D-02 -0.451122D-01  0.988541D-01
     25  0.112247D-02 -0.779760D-04  0.985932D-03 -0.146644D+00 -0.123082D+00
     26  0.615798D-03  0.991495D-03 -0.156209D-02 -0.124492D+00 -0.206592D+00
     27  0.237153D-03 -0.711612D-03 -0.606187D-02 -0.272813D-01 -0.295875D-01
     28  0.103921D-02  0.864101D-04 -0.184237D-02 -0.187860D+00  0.152288D-01
     29  0.667904D-03 -0.273279D-03  0.657888D-03  0.209035D-01 -0.874736D-01
     30 -0.113064D-03  0.110026D-02  0.105995D-02  0.466093D-01 -0.172457D-01
     31  0.680210D-04  0.314988D-05  0.186558D-03 -0.229490D-03  0.203693D-01
     32 -0.624454D-04  0.191094D-03  0.771070D-04 -0.220739D-02 -0.621013D-03
     33  0.163975D-04 -0.695898D-04  0.408180D-03 -0.134168D-02 -0.436245D-02
     34  0.157251D-03  0.109079D-03  0.491026D-03 -0.144524D-01 -0.231641D-01
     35 -0.205921D-03 -0.591970D-04  0.201545D-03  0.680167D-02  0.870057D-02
     36 -0.231875D-03 -0.587136D-03 -0.341247D-03  0.809169D-03  0.648692D-02
               21            22            23            24            25 
     21  0.403524D+00
     22 -0.473834D-01  0.803617D-01
     23  0.102230D+00 -0.748688D-01  0.218090D+00
     24 -0.101555D+00  0.467651D-01 -0.109544D+00  0.117215D+00
     25 -0.266647D-01  0.706992D-02  0.845338D-02  0.293238D-02  0.160396D+00
     26 -0.315309D-01 -0.146069D-01 -0.185946D-01 -0.481333D-02  0.133585D+00
     27 -0.529643D-01  0.108671D-01  0.126419D-01  0.292421D-02  0.243930D-01
     28  0.261044D-01 -0.144990D-01  0.639497D-02  0.436753D-02 -0.202367D-01
     29 -0.143447D-01  0.228779D-01 -0.533752D-02 -0.850176D-02 -0.240801D-01
     30 -0.651519D-01 -0.942154D-02  0.173947D-02  0.324103D-02 -0.158399D-02
     31  0.189358D-01 -0.181356D-02  0.103457D-02  0.722690D-03  0.158867D-02
     32 -0.456146D-02  0.961986D-04 -0.125809D-03 -0.193706D-03  0.222996D-03
     33  0.160174D-02  0.225351D-03  0.388147D-03 -0.733958D-03  0.527396D-04
     34  0.373949D-02  0.162924D-02 -0.205205D-03 -0.178424D-03 -0.445739D-02
     35 -0.165865D-02 -0.485392D-03  0.127920D-02  0.567605D-04  0.220746D-02
     36 -0.104110D-02  0.728823D-03 -0.852597D-03  0.103361D-02  0.749443D-03
               26            27            28            29            30 
     26  0.221253D+00
     27  0.381019D-01  0.601852D-01
     28  0.628841D-02  0.770426D-02  0.427423D+00
     29  0.740368D-02  0.765358D-02  0.819781D-01  0.547015D+00
     30  0.102922D-02  0.203255D-03 -0.140118D+00  0.124969D+00  0.277993D+00
     31 -0.664462D-04 -0.474539D-03 -0.480275D-01  0.139535D-01  0.244552D-01
     32  0.117976D-02  0.728956D-03  0.192446D-01 -0.226016D+00 -0.137447D+00
     33  0.304234D-03 -0.473452D-05  0.290438D-01 -0.148201D+00 -0.130528D+00
     34  0.177915D-02  0.283407D-02 -0.138701D+00 -0.123806D+00  0.467877D-01
     35  0.750891D-03 -0.891115D-03 -0.131667D+00 -0.217073D+00  0.387206D-01
     36 -0.580864D-03  0.116384D-02  0.538205D-01  0.466273D-01 -0.463198D-01
               31            32            33            34            35 
     31  0.498378D-01
     32 -0.215936D-01  0.237739D+00
     33 -0.283156D-01  0.150832D+00  0.134476D+00
     34  0.389256D-02  0.284160D-02 -0.662895D-04  0.151009D+00
     35 -0.126137D-01 -0.138614D-01  0.809583D-02  0.137824D+00  0.224321D+00
     36 -0.105291D-01 -0.150711D-01  0.741848D-02 -0.497674D-01 -0.470456D-01
               36 
     36  0.460513D-01
 Leave Link  716 at Sat Jun  6 17:53:13 2015, MaxMem= 3758096384 cpu:       0.6
 (Enter /share/apps/g09/l103.exe)

 GradGradGradGradGradGradGradGradGradGradGradGradGradGradGradGradGradGrad
 Berny optimization.
 Internal  Forces:  Max     0.001519724 RMS     0.000296907
 Search for a saddle point.
 Step number   1 out of a maximum of   69
 All quantities printed in internal units (Hartrees-Bohrs-Radians)
 Swaping is turned off.
 Second derivative matrix not updated -- analytic derivatives used.
     Eigenvalues ---   -0.05807   0.00120   0.00341   0.01272   0.02380
     Eigenvalues ---    0.02958   0.03135   0.03875   0.04491   0.05467
     Eigenvalues ---    0.06315   0.07259   0.07680   0.08400   0.09241
     Eigenvalues ---    0.10017   0.10296   0.16076   0.18852   0.21375
     Eigenvalues ---    0.23954   0.25901   0.29131   0.31725   0.32277
     Eigenvalues ---    0.33276   0.33795   0.34403   0.34595   0.35048
     Eigenvalues --- 1000.000001000.000001000.000001000.000001000.00000
     Eigenvalues --- 1000.000001000.000001000.000001000.000001000.00000
     Eigenvalues --- 1000.000001000.000001000.000001000.000001000.00000
     Eigenvalues --- 1000.000001000.000001000.000001000.000001000.00000
     Eigenvalues --- 1000.000001000.000001000.000001000.000001000.00000
     Eigenvalues --- 1000.000001000.000001000.000001000.00000
 Eigenvectors required to have negative eigenvalues:
                          R3        R1        R2        D25       D19
   1                    0.70764  -0.65330   0.11945   0.08255   0.08042
                          A16       D22       D23       D20       D26
   1                   -0.07972   0.07595  -0.07380  -0.06933  -0.06720
 RFO step:  Lambda0=1.912899075D-05 Lambda=-4.65358787D-05.
 Linear search not attempted -- option 19 set.
 Iteration  1 RMS(Cart)=  0.00466595 RMS(Int)=  0.00008681
 Iteration  2 RMS(Cart)=  0.00005297 RMS(Int)=  0.00003557
 Iteration  3 RMS(Cart)=  0.00000002 RMS(Int)=  0.00003557
 Variable       Old X    -DE/DX   Delta X   Delta X   Delta X     New X
                                 (Linear)    (Quad)   (Total)
    R1        2.19540   0.00014   0.00000  -0.01450  -0.01452   2.18088
    R2        2.67261  -0.00152   0.00000  -0.00256  -0.00257   2.67003
    R3        2.64438  -0.00105   0.00000   0.01329   0.01327   2.65765
    R4        2.68626  -0.00049   0.00000  -0.00180  -0.00178   2.68448
    R5        2.06383   0.00002   0.00000   0.00005   0.00005   2.06388
    R6        2.06904  -0.00003   0.00000  -0.00023  -0.00023   2.06880
    R7        2.92461   0.00006   0.00000   0.00114   0.00116   2.92577
    R8        2.07552  -0.00001   0.00000   0.00002   0.00002   2.07554
    R9        2.06402  -0.00004   0.00000   0.00005   0.00005   2.06408
   R10        2.84864  -0.00029   0.00000  -0.00067  -0.00066   2.84798
   R11        2.05400  -0.00009   0.00000  -0.00020  -0.00020   2.05380
   R12        2.05731  -0.00009   0.00000  -0.00029  -0.00029   2.05702
    A1        1.76798   0.00019   0.00000  -0.00334  -0.00352   1.76446
    A2        2.66504   0.00016   0.00000  -0.00464  -0.00478   2.66026
    A3        1.87626  -0.00037   0.00000  -0.00492  -0.00498   1.87129
    A4        1.83824  -0.00005   0.00000   0.00216   0.00216   1.84040
    A5        1.91385   0.00014   0.00000   0.00010   0.00009   1.91394
    A6        1.89808  -0.00001   0.00000  -0.00218  -0.00217   1.89590
    A7        1.91881   0.00012   0.00000   0.00176   0.00176   1.92057
    A8        1.94635  -0.00010   0.00000   0.00016   0.00018   1.94653
    A9        1.94525  -0.00010   0.00000  -0.00182  -0.00185   1.94340
   A10        1.87699   0.00014   0.00000   0.00226   0.00227   1.87925
   A11        1.88915  -0.00010   0.00000  -0.00226  -0.00225   1.88690
   A12        1.94450  -0.00013   0.00000  -0.00055  -0.00059   1.94391
   A13        1.88063  -0.00003   0.00000  -0.00011  -0.00012   1.88051
   A14        1.93975   0.00008   0.00000   0.00181   0.00182   1.94157
   A15        1.93041   0.00005   0.00000  -0.00115  -0.00114   1.92928
   A16        1.71758  -0.00027   0.00000  -0.00329  -0.00337   1.71421
   A17        1.83726   0.00034   0.00000   0.00536   0.00539   1.84266
   A18        1.75831   0.00021   0.00000   0.00128   0.00131   1.75962
   A19        2.05027  -0.00002   0.00000  -0.00026  -0.00024   2.05003
   A20        2.04039  -0.00014   0.00000  -0.00126  -0.00126   2.03913
   A21        1.99109  -0.00001   0.00000  -0.00067  -0.00068   1.99041
    D1       -0.63102  -0.00038   0.00000  -0.04330  -0.04327  -0.67429
    D2        0.90673   0.00037   0.00000   0.01919   0.01921   0.92594
    D3        0.37901  -0.00007   0.00000   0.03559   0.03558   0.41460
    D4        2.50105  -0.00008   0.00000   0.03579   0.03577   2.53682
    D5       -1.70807   0.00011   0.00000   0.03755   0.03756  -1.67051
    D6        2.98560  -0.00019   0.00000  -0.00789  -0.00786   2.97774
    D7        0.92172  -0.00037   0.00000  -0.01120  -0.01118   0.91054
    D8       -1.20935  -0.00034   0.00000  -0.00763  -0.00759  -1.21694
    D9        3.07350   0.00016   0.00000   0.00481   0.00480   3.07831
   D10       -1.18232   0.00015   0.00000   0.00469   0.00469  -1.17762
   D11        0.94382   0.00006   0.00000   0.00141   0.00142   0.94524
   D12       -1.19014   0.00005   0.00000   0.00621   0.00622  -1.18392
   D13        0.83723   0.00003   0.00000   0.00610   0.00610   0.84334
   D14        2.96337  -0.00006   0.00000   0.00282   0.00283   2.96620
   D15        0.96160   0.00006   0.00000   0.00728   0.00728   0.96889
   D16        2.98897   0.00004   0.00000   0.00717   0.00717   2.99615
   D17       -1.16807  -0.00005   0.00000   0.00389   0.00390  -1.16418
   D18       -0.40714   0.00020   0.00000  -0.00431  -0.00431  -0.41145
   D19       -2.36437  -0.00002   0.00000  -0.00854  -0.00853  -2.37289
   D20        1.45407   0.00024   0.00000  -0.00509  -0.00510   1.44897
   D21       -2.50010   0.00006   0.00000  -0.00802  -0.00802  -2.50811
   D22        1.82586  -0.00016   0.00000  -0.01225  -0.01224   1.81363
   D23       -0.63889   0.00010   0.00000  -0.00880  -0.00881  -0.64770
   D24        1.69491   0.00002   0.00000  -0.00830  -0.00830   1.68660
   D25       -0.26232  -0.00021   0.00000  -0.01253  -0.01253  -0.27484
   D26       -2.72707   0.00005   0.00000  -0.00909  -0.00910  -2.73617
         Item               Value     Threshold  Converged?
 Maximum Force            0.001520     0.000450     NO 
 RMS     Force            0.000297     0.000300     YES
 Maximum Displacement     0.015207     0.001800     NO 
 RMS     Displacement     0.004680     0.001200     NO 
 Predicted change in Energy=-1.387888D-05
 GradGradGradGradGradGradGradGradGradGradGradGradGradGradGradGradGradGrad

 Leave Link  103 at Sat Jun  6 17:53:13 2015, MaxMem= 3758096384 cpu:       2.0
 (Enter /share/apps/g09/l202.exe)
                          Input orientation:                          
 ---------------------------------------------------------------------
 Center     Atomic      Atomic             Coordinates (Angstroms)
 Number     Number       Type             X           Y           Z
 ---------------------------------------------------------------------
      1          8           0        0.001392   -0.008047    0.000766
      2          1           0        0.003516    0.006813    1.154739
      3          8           0        1.387330    0.002028   -0.273860
      4          6           0        1.968852   -1.067412    0.458354
      5          1           0        2.997102   -1.141560    0.097782
      6          1           0        1.428919   -1.995759    0.245866
      7          6           0        1.919235   -0.718992    1.966076
      8          1           0        2.311691   -1.581883    2.520801
[...]
    A2        2.66026  -0.00001   0.00000   0.00012   0.00012   2.66038
    A3        1.87129   0.00001   0.00000   0.00015   0.00015   1.87144
    A4        1.84040   0.00000   0.00000  -0.00004  -0.00004   1.84036
    A5        1.91394   0.00000   0.00000   0.00002   0.00002   1.91396
    A6        1.89590   0.00000   0.00000   0.00003   0.00003   1.89593
    A7        1.92057   0.00000   0.00000  -0.00001  -0.00001   1.92056
    A8        1.94653   0.00000   0.00000   0.00000   0.00000   1.94653
    A9        1.94340   0.00000   0.00000   0.00000   0.00000   1.94340
   A10        1.87925  -0.00001   0.00000   0.00001   0.00001   1.87926
   A11        1.88690   0.00000   0.00000   0.00000   0.00000   1.88690
   A12        1.94391   0.00001   0.00000   0.00004   0.00004   1.94394
   A13        1.88051   0.00000   0.00000  -0.00001  -0.00001   1.88050
   A14        1.94157   0.00000   0.00000  -0.00001  -0.00001   1.94156
   A15        1.92928   0.00000   0.00000  -0.00002  -0.00002   1.92926
   A16        1.71421   0.00000   0.00000  -0.00009  -0.00009   1.71412
   A17        1.84266   0.00000   0.00000   0.00015   0.00015   1.84281
   A18        1.75962   0.00000   0.00000  -0.00007  -0.00007   1.75955
   A19        2.05003   0.00000   0.00000   0.00001   0.00001   2.05004
   A20        2.03913   0.00000   0.00000  -0.00001  -0.00001   2.03912
   A21        1.99041   0.00000   0.00000   0.00001   0.00001   1.99042
    D1       -0.67429   0.00001   0.00000   0.00135   0.00135  -0.67294
    D2        0.92594  -0.00001   0.00000  -0.00073  -0.00073   0.92521
    D3        0.41460   0.00000   0.00000  -0.00080  -0.00080   0.41380
    D4        2.53682   0.00000   0.00000  -0.00078  -0.00078   2.53604
    D5       -1.67051   0.00000   0.00000  -0.00074  -0.00074  -1.67125
    D6        2.97774   0.00001   0.00000   0.00021   0.00021   2.97795
    D7        0.91054   0.00001   0.00000   0.00024   0.00024   0.91078
    D8       -1.21694   0.00001   0.00000   0.00020   0.00020  -1.21674
    D9        3.07831   0.00000   0.00000   0.00041   0.00041   3.07872
   D10       -1.17762   0.00000   0.00000   0.00040   0.00040  -1.17722
   D11        0.94524   0.00000   0.00000   0.00040   0.00040   0.94564
   D12       -1.18392   0.00000   0.00000   0.00038   0.00038  -1.18354
   D13        0.84334   0.00000   0.00000   0.00037   0.00037   0.84370
   D14        2.96620   0.00000   0.00000   0.00037   0.00037   2.96656
   D15        0.96889   0.00000   0.00000   0.00036   0.00036   0.96925
   D16        2.99615   0.00000   0.00000   0.00035   0.00035   2.99650
   D17       -1.16418   0.00000   0.00000   0.00035   0.00035  -1.16383
   D18       -0.41145  -0.00001   0.00000  -0.00027  -0.00027  -0.41172
   D19       -2.37289  -0.00001   0.00000  -0.00040  -0.00040  -2.37329
   D20        1.44897   0.00000   0.00000  -0.00041  -0.00041   1.44856
   D21       -2.50811   0.00000   0.00000  -0.00030  -0.00030  -2.50841
   D22        1.81363   0.00000   0.00000  -0.00042  -0.00042   1.81320
   D23       -0.64770   0.00000   0.00000  -0.00044  -0.00044  -0.64813
   D24        1.68660   0.00000   0.00000  -0.00027  -0.00027   1.68634
   D25       -0.27484   0.00000   0.00000  -0.00039  -0.00039  -0.27523
   D26       -2.73617   0.00000   0.00000  -0.00040  -0.00040  -2.73657
         Item               Value     Threshold  Converged?
 Maximum Force            0.000043     0.000450     YES
 RMS     Force            0.000008     0.000300     YES
 Maximum Displacement     0.001015     0.001800     YES
 RMS     Displacement     0.000256     0.001200     YES
 Predicted change in Energy=-2.386529D-08
 Optimization completed.
    -- Stationary point found.
                           ----------------------------
                           !   Optimized Parameters   !
                           ! (Angstroms and Degrees)  !
 --------------------------                            --------------------------
 ! Name  Definition              Value          Derivative Info.                !
 --------------------------------------------------------------------------------
 ! R1    R(1,2)                  1.1541         -DE/DX =    0.0                 !
 ! R2    R(1,3)                  1.4129         -DE/DX =    0.0                 !
 ! R3    R(2,10)                 1.4064         -DE/DX =    0.0                 !
 ! R4    R(3,4)                  1.4206         -DE/DX =    0.0                 !
 ! R5    R(4,5)                  1.0922         -DE/DX =    0.0                 !
 ! R6    R(4,6)                  1.0948         -DE/DX =    0.0                 !
 ! R7    R(4,7)                  1.5483         -DE/DX =    0.0                 !
 ! R8    R(7,8)                  1.0983         -DE/DX =    0.0                 !
 ! R9    R(7,9)                  1.0923         -DE/DX =    0.0                 !
 ! R10   R(7,10)                 1.5071         -DE/DX =    0.0                 !
 ! R11   R(10,11)                1.0868         -DE/DX =    0.0                 !
 ! R12   R(10,12)                1.0885         -DE/DX =    0.0                 !
 ! A1    A(2,1,3)              101.0961         -DE/DX =    0.0                 !
 ! A2    A(1,2,10)             152.4218         -DE/DX =    0.0                 !
 ! A3    A(1,3,4)              107.2168         -DE/DX =    0.0                 !
 ! A4    A(3,4,5)              105.447          -DE/DX =    0.0                 !
 ! A5    A(3,4,6)              109.6607         -DE/DX =    0.0                 !
 ! A6    A(3,4,7)              108.6273         -DE/DX =    0.0                 !
 ! A7    A(5,4,6)              110.0406         -DE/DX =    0.0                 !
 ! A8    A(5,4,7)              111.5279         -DE/DX =    0.0                 !
 ! A9    A(6,4,7)              111.3486         -DE/DX =    0.0                 !
 ! A10   A(4,7,8)              107.6733         -DE/DX =    0.0                 !
 ! A11   A(4,7,9)              108.1116         -DE/DX =    0.0                 !
 ! A12   A(4,7,10)             111.3776         -DE/DX =    0.0                 !
 ! A13   A(8,7,9)              107.7453         -DE/DX =    0.0                 !
 ! A14   A(8,7,10)             111.2438         -DE/DX =    0.0                 !
 ! A15   A(9,7,10)             110.5394         -DE/DX =    0.0                 !
 ! A16   A(2,10,7)              98.217          -DE/DX =    0.0                 !
 ! A17   A(2,10,11)            105.5765         -DE/DX =    0.0                 !
 ! A18   A(2,10,12)            100.8187         -DE/DX =    0.0                 !
 ! A19   A(7,10,11)            117.4582         -DE/DX =    0.0                 !
 ! A20   A(7,10,12)            116.8338         -DE/DX =    0.0                 !
 ! A21   A(11,10,12)           114.0418         -DE/DX =    0.0                 !
 ! D1    D(3,1,2,10)           -38.6342         -DE/DX =    0.0                 !
 ! D2    D(2,1,3,4)             53.0523         -DE/DX =    0.0                 !
 ! D3    D(1,2,10,7)            23.7546         -DE/DX =    0.0                 !
 ! D4    D(1,2,10,11)          145.3489         -DE/DX =    0.0                 !
 ! D5    D(1,2,10,12)          -95.7132         -DE/DX =    0.0                 !
 ! D6    D(1,3,4,5)            170.6118         -DE/DX =    0.0                 !
 ! D7    D(1,3,4,6)             52.1701         -DE/DX =    0.0                 !
 ! D8    D(1,3,4,7)            -69.7255         -DE/DX =    0.0                 !
 ! D9    D(3,4,7,8)            176.3739         -DE/DX =    0.0                 !
 ! D10   D(3,4,7,9)            -67.4728         -DE/DX =    0.0                 !
 ! D11   D(3,4,7,10)            54.1582         -DE/DX =    0.0                 !
 ! D12   D(5,4,7,8)            -67.8337         -DE/DX =    0.0                 !
 ! D13   D(5,4,7,9)             48.3196         -DE/DX =    0.0                 !
 ! D14   D(5,4,7,10)           169.9506         -DE/DX =    0.0                 !
 ! D15   D(6,4,7,8)             55.5132         -DE/DX =    0.0                 !
 ! D16   D(6,4,7,9)            171.6665         -DE/DX =    0.0                 !
 ! D17   D(6,4,7,10)           -66.7025         -DE/DX =    0.0                 !
 ! D18   D(4,7,10,2)           -23.5741         -DE/DX =    0.0                 !
 ! D19   D(4,7,10,11)         -135.9568         -DE/DX =    0.0                 !
 ! D20   D(4,7,10,12)           83.0198         -DE/DX =    0.0                 !
 ! D21   D(8,7,10,2)          -143.7042         -DE/DX =    0.0                 !
 ! D22   D(8,7,10,11)          103.9131         -DE/DX =    0.0                 !
 ! D23   D(8,7,10,12)          -37.1103         -DE/DX =    0.0                 !
 ! D24   D(9,7,10,2)            96.6353         -DE/DX =    0.0                 !
 ! D25   D(9,7,10,11)          -15.7474         -DE/DX =    0.0                 !
 ! D26   D(9,7,10,12)         -156.7708         -DE/DX =    0.0                 !
 --------------------------------------------------------------------------------
 GradGradGradGradGradGradGradGradGradGradGradGradGradGradGradGradGradGrad

 Leave Link  103 at Sat Jun  6 17:54:44 2015, MaxMem= 3758096384 cpu:       4.2
 (Enter /share/apps/g09/l9999.exe)
 1\1\GINC-COMPUTE-0-1\Freq\UB3LYP\6-311G(2d,d,p)\C3H7O2(2)\HETANJIN\06-
 Jun-2015\0\\#P Geom=AllCheck Guess=TCheck SCRF=Check GenChk UB3LYP/6-3
 11G(2d,d,p) Freq\\using ub3lyp/6-31G(d) to scan\\0,2\O,0.0013922392,-0
 .0080474308,0.000766155\H,0.0035163202,0.0068129797,1.1547393238\O,1.3
 873297624,0.0020279198,-0.2738604515\C,1.9688518207,-1.0674117396,0.45
 83542054\H,2.9971020138,-1.1415599434,0.0977823577\H,1.4289194091,-1.9
 957585739,0.2458659041\C,1.9192347818,-0.7189918804,1.9660763\H,2.3116
 914516,-1.58188335,2.520801401\H,2.5914919727,0.1236868839,2.142141908
 3\C,0.5183731257,-0.3786075213,2.4054374579\H,0.3920538996,0.485807168
 4,3.0519824327\H,-0.1370407968,-1.2132305123,2.6477920056\\Version=EM6
 4L-G09RevA.01\State=2-A\HF=-268.8817478\S2=0.756566\S2-1=0.\S2A=0.7500
 25\RMSD=2.654e-09\RMSF=1.289e-05\ZeroPoint=0.0939134\Thermal=0.0990256
 \Dipole=0.561837,-0.5849863,0.9478115\DipoleDeriv=-0.085307,0.1184014,
 -0.5982764,0.0236893,-0.2652822,0.0475673,-0.1428893,0.0774926,0.28745
 03,0.1610236,-0.0326331,-0.0682016,-0.0457048,0.1734817,0.0830101,0.13
 49595,-0.0236092,-0.5150055,-0.3236813,0.003597,0.4654012,0.0387407,-0
 .3102042,0.0471884,-0.0432405,0.0453475,-0.5070605,0.3224291,-0.021624
 9,-0.0076066,-0.1296268,0.4621895,0.1040778,-0.0030882,-0.0488523,0.50
 11851,-0.0985419,0.0415866,0.0736052,0.0212366,0.057315,0.0049291,0.05
 33307,-0.0017576,0.0346451,0.0064977,-0.1151538,-0.0401832,-0.0031803,
 -0.113488,-0.0585638,-0.0346657,-0.0202349,-0.009596,-0.003213,0.02083
 18,0.1147231,0.141013,0.0542562,-0.0811944,0.0824172,-0.0545781,-0.189
 8344,0.0064654,0.0613873,-0.0813531,0.065637,-0.0459111,0.0752804,-0.0
 686348,0.0705905,0.0850999,-0.0428005,-0.067855,-0.0199837,-0.0991035,
 -0.050595,-0.044265,0.0032075,-0.0202751,0.0258854,-0.0020862,0.054693
 8,0.1931592,0.077324,0.0863293,-0.1883082,-0.125867,0.0711263,0.353272
 6,0.0580231,-0.0199185,-0.0159619,0.0095759,-0.0084485,-0.0286308,0.07
 34518,-0.1029815,-0.0495744,0.001191,-0.0433126,-0.0153221,-0.0996011,
 -0.0396428,0.0389093,0.0710188,0.007732,-0.0164676\Polar=47.9892837,-3
 .8388579,38.5078942,-3.4552287,-0.0005949,57.5320712\PG=C01 [X(C3H7O2)
 ]\NImag=1\\0.29690487,-0.01515558,0.04276140,0.03132060,-0.01727773,0.
 11807039,-0.04080371,-0.00124634,-0.00703818,0.08493934,0.00410089,-0.
 01317349,-0.02324820,-0.00399274,0.03704526,-0.04895184,-0.00093743,0.
 03674302,-0.02899796,0.02047201,-0.07725157,-0.21927641,-0.02908337,0.
 03347939,-0.01241163,-0.00505461,0.05593048,0.33795865,0.00389818,-0.0
 3761611,0.01403085,0.00299300,0.00000040,-0.00408874,-0.03507187,0.233
 18265,0.00360386,0.02052389,-0.04673136,0.03010669,0.00357566,-0.01759
 406,-0.02300449,-0.12451793,0.19809193,-0.05561962,0.03953315,-0.01264
 710,-0.00241263,0.00332019,-0.00295048,-0.07857477,-0.00076810,0.00141
 890,0.62321277,0.01964887,0.00176202,-0.00810065,0.00221744,0.00021219
 ,0.00885217,0.02475461,-0.15761764,0.06374840,0.05914448,0.51593039,0.
 00684923,-0.00589230,-0.00401832,0.00516681,-0.00203441,-0.00062002,-0
 .02932276,0.06560325,-0.09907965,-0.05695920,0.03342693,0.40244191,0.0
 0030276,0.00463743,-0.00189981,0.00046796,-0.00046046,0.00001891,-0.01
 905051,0.00260516,0.00209316,-0.28062799,0.01247106,0.08246390,0.30691
 136,0.00422304,-0.00330380,0.00160022,-0.00027579,-0.00018597,0.000092
 56,0.02810842,-0.00242455,-0.00710005,0.00353166,-0.05331128,-0.000879
 61,-0.01907334,0.05384648,-0.00464964,0.00422580,-0.00028494,-0.000516
 59,0.00007711,0.00037994,-0.01943717,0.00049847,0.00500934,0.08916752,
 -0.00370508,-0.07746945,-0.08683557,0.00244934,0.08346081,0.00525777,0
 .00085730,-0.00050013,-0.00010646,0.00013712,0.00046076,0.00411289,0.0
 1810919,-0.00001361,-0.12221821,-0.11356707,-0.02476911,-0.01146906,-0
 .02365606,-0.00580178,0.12122923,-0.00416346,0.00551579,0.00110685,-0.
 00010392,-0.00047524,-0.00213619,-0.00352757,-0.03787960,0.00761362,-0
 .10553099,-0.21970118,-0.04542254,0.00076162,0.00462453,0.00031242,0.1
 1605622,0.25049174,0.00147076,-0.00264638,0.00032153,-0.00016991,-0.00
 029196,-0.00043959,0.00692796,0.02748723,0.00146499,-0.02714610,-0.048
 61237,-0.05845103,0.00509258,0.00879924,0.00270247,0.03013296,0.042296
 67,0.06734252,0.00479271,-0.00028453,-0.00358776,-0.00874034,0.0039469
 8,-0.00844454,-0.00592676,0.00251210,-0.01047382,-0.07878930,-0.008667
 84,-0.00396779,0.00229300,0.00586307,0.02918726,0.00069100,-0.00345210
 ,-0.01612418,0.50635298,-0.00275065,-0.00054384,0.00206389,0.00496282,
 -0.00160893,0.00642922,0.01099652,-0.00154711,0.03136461,-0.00510461,-
 0.07889011,-0.03100551,-0.00156449,-0.00000954,-0.00257905,0.00115646,
 -0.00408978,-0.02702491,0.03640108,0.57383041,-0.00288350,-0.00060560,
 0.01122681,-0.01215624,0.00386880,-0.01070614,-0.00804117,0.01984265,-
 0.04076825,0.00900113,-0.03225840,-0.12391530,-0.00142144,-0.00448991,
 -0.01011666,0.00125115,-0.00312902,-0.00973493,0.03951503,-0.03382418,
 0.40288723,-0.00231922,0.00004579,0.00224971,-0.00173812,0.00106154,-0
 .00345582,0.00278251,-0.00010385,0.00081205,-0.00013008,0.00010558,-0.
 00098727,-0.00001939,-0.00022999,-0.00035642,0.00012595,-0.00014987,-0
 .00001969,-0.07176619,0.06663131,-0.04792447,0.08072137,-0.00023996,0.
 00035924,-0.00013969,0.00048514,0.00005750,-0.00222264,-0.00077377,0.0
 0110445,-0.00062923,-0.00261280,0.00380838,-0.00488321,0.00009767,0.00
 013160,0.00063451,-0.00013693,0.00067688,0.00064692,0.06262250,-0.2005
 0444,0.10231376,-0.07524687,0.21712483,0.00398991,-0.00014194,-0.00302
 322,0.00135299,-0.00068965,0.00327661,-0.00413688,-0.00056013,-0.00822
 157,-0.01094496,0.02580566,-0.01646053,0.00087640,0.00003182,0.0007163
 5,-0.00066401,-0.00037871,0.00172351,-0.04552778,0.09888208,-0.1018007
 3,0.04726111,-0.10962289,0.11742580,-0.00128661,0.00022128,0.00048891,
 -0.00024430,-0.00011299,-0.00088666,0.00080437,-0.00032266,-0.00004852
 ,0.00116950,0.00231264,-0.00013473,0.00072307,0.00061929,-0.00029235,0
 .00111595,-0.00008400,0.00097251,-0.14606742,-0.12291325,-0.02611046,0
 .00709195,0.00852846,0.00290539,0.15989204,0.00044090,-0.00016009,-0.0
 0037644,0.00003975,-0.00025793,0.00038063,0.00009851,0.00237862,0.0007
 4926,-0.00411322,-0.00866053,-0.00149235,0.00037866,0.00026109,-0.0002
 3389,0.00062656,0.00097839,-0.00156858,-0.12441532,-0.20726039,-0.0310
 3866,-0.01451899,-0.01860307,-0.00473225,0.13347511,0.22199417,-0.0003
 2766,0.00040892,-0.00019452,0.00035121,-0.00009439,-0.00029723,0.00121
 365,0.00022022,0.00359598,-0.01968309,-0.02883855,-0.00994016,0.000167
 00,0.00030722,0.00143481,0.00023269,-0.00071057,-0.00608241,-0.0267170
 1,-0.02908022,-0.05272731,0.01084755,0.01271430,0.00288624,0.02387150,
 0.03755883,0.05997822,0.01656897,-0.00000447,-0.04827433,-0.02075195,-
 0.00312449,0.05207135,-0.01505487,0.00639871,-0.00327150,0.00067837,-0
 .00134320,0.02251229,0.00013067,0.00064134,-0.00230751,0.00103215,0.00
 007056,-0.00181383,-0.18809337,0.01521125,0.02604952,-0.01460777,0.006
 44565,0.00436850,-0.02030698,0.00626641,0.00768528,0.42745653,-0.01410
 821,0.00302720,0.03535501,-0.00251886,-0.01799994,-0.03789977,0.013009
 07,-0.00018377,0.00463710,0.01074163,-0.00263706,-0.00976778,0.0004673
 2,0.00032139,-0.00131466,0.00069122,-0.00026585,0.00062058,0.02089955,
 -0.08748775,-0.01437887,0.02283452,-0.00529068,-0.00848341,-0.02416460
 ,0.00739013,0.00767697,0.08280068,0.54483134,0.01670534,0.00183831,-0.
 12269175,0.00668453,-0.00386831,0.09396789,-0.02073095,0.00289604,0.00
 560893,0.03145595,-0.01339487,-0.01097274,-0.00079745,-0.00042951,-0.0
 0562153,-0.00010801,0.00109101,0.00110111,0.04656898,-0.01734261,-0.06
 503402,-0.00943497,0.00166003,0.00320589,-0.00160738,0.00102494,0.0001
 8073,-0.13908927,0.12701177,0.27887343,-0.00298034,-0.00005121,0.00211
 358,0.00015892,-0.00323006,-0.00718532,0.00276528,-0.00011466,0.000058
 93,-0.00547605,0.00244443,-0.00129036,0.00020418,0.00000726,0.00149311
 ,0.00006623,0.00000852,0.00018041,-0.00019283,0.02025405,0.01910032,-0
 .00177301,0.00101994,0.00069479,0.00158371,-0.00007170,-0.00047814,-0.
 04800510,0.01357432,0.02431165,0.04969635,0.00288546,0.00064161,-0.003
 49530,0.00001302,0.00121997,0.00716350,-0.00297086,0.00063176,-0.00033
 000,0.00182306,-0.00115898,0.00272840,-0.00028306,0.00015925,-0.000449
 36,-0.00006327,0.00018725,0.00008419,-0.00223280,-0.00058023,-0.004720
 14,0.00007010,-0.00012773,-0.00016669,0.00023324,0.00117605,0.00074574
 ,0.01891861,-0.22408731,-0.13809812,-0.02120729,0.23576505,-0.00439627
 ,0.00079273,0.00338954,0.00039247,-0.00779388,-0.01359303,0.00372116,-
 0.00051774,0.00079077,0.00052593,0.00088411,-0.00259202,0.00020385,-0.
 00008573,-0.00026218,0.00001459,-0.00005959,0.00039969,-0.00132331,-0.
 00439782,0.00167317,0.00025840,0.00037551,-0.00076433,0.00004028,0.000
 30901,-0.00001547,0.02898969,-0.14917232,-0.13280074,-0.02844162,0.151
 76533,0.13638586,-0.00154118,0.00053056,0.00429512,0.00164290,0.003408
 63,-0.00760888,0.00187125,-0.00013520,-0.00128165,-0.00121200,0.000478
 99,0.00043899,0.00013396,0.00024110,0.00034914,0.00016256,0.00011499,0
 .00049653,-0.01455349,-0.02328048,0.00362014,0.00163199,-0.00018904,-0
 .00017545,-0.00447529,0.00179333,0.00283704,-0.13904665,-0.12422667,0.
 04604158,0.00395267,0.00281379,0.00001484,0.15143329,0.00122053,0.0007
 3007,-0.00151879,-0.00257352,-0.00483381,0.00389468,-0.00048509,-0.000
 02908,0.00036468,0.00003554,0.00026381,-0.00038086,-0.00003758,-0.0001
 0919,0.00008440,-0.00021075,-0.00006293,0.00020938,0.00680730,0.008691
 71,-0.00158042,-0.00049927,0.00126304,0.00005613,0.00220749,0.00076355
 ,-0.00090846,-0.13228104,-0.21761767,0.03761132,-0.01263360,-0.0138267
 0,0.00790039,0.13844999,0.22476719,-0.00273081,-0.00028827,0.00719282,
 0.00482418,0.01002720,-0.01386583,0.00340080,-0.00089415,-0.00216705,-
 0.00123850,0.00219266,0.00107732,0.00003850,-0.00029558,0.00005105,-0.
 00023551,-0.00058393,-0.00034786,0.00089492,0.00651451,-0.00098385,0.0
 0074984,-0.00084736,0.00103598,0.00080151,-0.00058048,0.00118114,0.053
 07981,0.04571540,-0.04581720,-0.01055734,-0.01522755,0.00738876,-0.049
 02741,-0.04573245,0.04525472\\0.00001369,-0.00002968,0.00003047,0.0000
 2676,0.00001563,-0.00003667,-0.00000856,0.00002053,0.00001802,-0.00001
 682,-0.00000024,-0.00000648,0.00000117,0.00000006,0.00000279,0.0000008
 8,-0.00000280,0.00000044,-0.00000349,0.00000438,0.00001006,-0.00000401
 ,-0.00000188,0.00000214,0.00000005,-0.00000147,0.00000348,0.00000031,-
 0.00000824,-0.00001167,-0.00000561,0.00000224,-0.00000729,-0.00000436,
 0.00000148,-0.00000527\\\@


 RESEARCH IS WHAT I AM DOING WHEN I DON'T KNOW WHAT I AM DOING.
     -- WERNER VON BRAUN
 Job cpu time:  0 days  0 hours 12 minutes  4.8 seconds.
 File lengths (MBytes):  RWF=     48 Int=      0 D2E=      0 Chk=      3 Scr=      1
 Normal termination of Gaussian 09 at Sat Jun  6 17:54:44 2015.
