 Entering Gaussian System, Link 0=/share/apps/g09/g09
 Input=TS_3e_35_cbs_on_7.gjf
 Output=TS_3e_35_cbs_on_7.log
 Initial command:
 /share/apps/g09/l1.exe /state/partition1/Gau-16589.inp -scrdir=/state/partition1/
 Entering Link 1 = /share/apps/g09/l1.exe PID=     16590.
  
 Copyright (c) 1988,1990,1992,1993,1995,1998,2003,2009, Gaussian, Inc.
                  All Rights Reserved.
  
 This is part of the Gaussian(R) 09 program.  It is based on
 the Gaussian(R) 03 system (copyright 2003, Gaussian, Inc.),
 the Gaussian(R) 98 system (copyright 1998, Gaussian, Inc.),
 the Gaussian(R) 94 system (copyright 1995, Gaussian, Inc.),
 the Gaussian 92(TM) system (copyright 1992, Gaussian, Inc.),
 the Gaussian 90(TM) system (copyright 1990, Gaussian, Inc.),
 the Gaussian 88(TM) system (copyright 1988, Gaussian, Inc.),
 the Gaussian 86(TM) system (copyright 1986, Carnegie Mellon
 University), and the Gaussian 82(TM) system (copyright 1983,
 Carnegie Mellon University). Gaussian is a federally registered
 trademark of Gaussian, Inc.
  
 This software contains proprietary and confidential information,
 including trade secrets, belonging to Gaussian, Inc.
  
 This software is provided under written license and may be
 used, copied, transmitted, or stored only in accord with that
 written license.
  
 The following legend is applicable only to US Government
 contracts under FAR:
  
                    RESTRICTED RIGHTS LEGEND
  
 Use, reproduction and disclosure by the US Government is
 subject to restrictions as set forth in subparagraphs (a)
 and (c) of the Commercial Computer Software - Restricted
 Rights clause in FAR 52.227-19.
  
 Gaussian, Inc.
 340 Quinnipiac St., Bldg. 40, Wallingford CT 06492
  
  
 ---------------------------------------------------------------
 Warning -- This program may not be used in any manner that
 competes with the business of Gaussian, Inc. or will provide
 assistance to any competitor of Gaussian, Inc.  The licensee
 of this program is prohibited from giving any competitor of
 Gaussian, Inc. access to this program.  By using this program,
 the user acknowledges that Gaussian, Inc. is engaged in the
 business of creating and licensing software in the field of
 computational chemistry and represents and warrants to the
 licensee that it is not a competitor of Gaussian, Inc. and that
 it will not use this program in any manner prohibited above.
 ---------------------------------------------------------------
  

 Cite this work as:
 Gaussian 09, Revision A.01,
 M. J. Frisch, G. W. Trucks, H. B. Schlegel, G. E. Scuseria, 
 M. A. Robb, J. R. Cheeseman, G. Scalmani, V. Barone, B. Mennucci, 
 G. A. Petersson, H. Nakatsuji, M. Caricato, X. Li, H. P. Hratchian, 
 A. F. Izmaylov, J. Bloino, G. Zheng, J. L. Sonnenberg, M. Hada, 
 M. Ehara, K. Toyota, R. Fukuda, J. Hasegawa, M. Ishida, T. Nakajima, 
 Y. Honda, O. Kitao, H. Nakai, T. Vreven, J. A. Montgomery, Jr., 
 J. E. Peralta, F. Ogliaro, M. Bearpark, J. J. Heyd, E. Brothers, 
 K. N. Kudin, V. N. Staroverov, R. Kobayashi, J. Normand, 
 K. Raghavachari, A. Rendell, J. C. Burant, S. S. Iyengar, J. Tomasi, 
 M. Cossi, N. Rega, J. M. Millam, M. Klene, J. E. Knox, J. B. Cross, 
 V. Bakken, C. Adamo, J. Jaramillo, R. Gomperts, R. E. Stratmann, 
 O. Yazyev, A. J. Austin, R. Cammi, C. Pomelli, J. W. Ochterski, 
 R. L. Martin, K. Morokuma, V. G. Zakrzewski, G. A. Voth, 
 P. Salvador, J. J. Dannenberg, S. Dapprich, A. D. Daniels, 
 O. Farkas, J. B. Foresman, J. V. Ortiz, J. Cioslowski, 
 and D. J. Fox, Gaussian, Inc., Wallingford CT, 2009.
 
 ******************************************
 Gaussian 09:  EM64L-G09RevA.01  8-May-2009
                27-Jun-2015 
 ******************************************
 %mem=28GB
 %nprocshared=12
 Will use up to   12 processors via shared memory.
 %chk=TS_3e_35_cbs_on_7.chk
 --------------------------------
 #p cbs-qb3 opt=(TS, calcfc) freq
 --------------------------------
 1/5=1,10=4,14=-1,18=20,26=3,38=1/1,3;
 2/9=110,12=2,17=6,18=5,40=1/2;
 3/5=4,6=6,7=700,11=2,16=1,25=1,30=1,71=2,74=-5/1,2,3;
 4//1;
 5/5=2,38=5/2;
 8/6=4,10=90,11=11/1;
 11/6=1,8=1,9=11,15=111,16=1/1,2,10;
 10/6=1,7=6,13=1/2;
 6/7=2,8=2,9=2,10=2,28=1/1;
 7/10=1,18=20,25=1/1,2,3,16;
 1/5=1,10=4,14=-1,18=20/3(2);
 2/9=110/2;
 99//99;
 2/9=110/2;
 3/5=4,6=6,7=700,11=2,16=1,25=1,30=1,71=1,74=-5/1,2,3;
 4/5=5,16=3/1;
 5/5=2,38=5/2;
 7//1,2,3,16;
 1/5=1,14=-1,18=20/3(-5);
 2/9=110/2;
 6/7=2,8=2,9=2,10=2,19=2,28=1/1;
 99/9=1/99;
 Leave Link    1 at Sat Jun 27 19:17:29 2015, MaxMem= 3758096384 cpu:       0.3
 (Enter /share/apps/g09/l101.exe)
 -----------------------------
 using ub3lyp/6-31G(d) to scan
 -----------------------------
 Symbolic Z-matrix:
 Charge =  0 Multiplicity = 2
 C                    -3.2323   -1.13995  -0.576 
 H                    -2.81455  -2.14835  -0.4846 
 H                    -4.2247   -1.15589  -0.11738 
 C                    -2.33859  -0.09173   0.1005 
 C                    -2.18607  -0.35394   1.6035 
 H                    -1.53348   0.39113   2.06344 
 H                    -3.15871  -0.3037    2.10086 
 C                    -0.99524   0.0282   -0.63487 
 H                    -1.19102   0.27059  -1.68375 
 C                    -0.00522  -1.14685  -0.48654 
 H                    -0.45117  -2.01516   0.00626 
 H                     0.37263  -1.46972  -1.45996 
 C                     1.08674  -0.51042   0.33317 
 C                     2.42657  -0.16184  -0.23045 
 H                     2.28944   0.07837  -1.29151 
 H                    -3.36286  -0.92729  -1.64137 
 H                    -1.7694   -1.346     1.80851 
 O                    -0.15362   1.07875  -0.08598 
 O                    -0.9478    2.47523  -0.56382 
 H                    -0.90671   2.8974    0.3044 
 H                    -2.80945   0.88849  -0.02235 
 C                     3.02476   1.06791   0.46744 
 H                     3.1709    0.87854   1.53629 
 H                     3.99772   1.32296   0.03798 
 H                     2.36054   1.92647   0.35753 
 C                     3.37972  -1.37732  -0.14024 
 H                     2.97024  -2.24988  -0.65653 
 H                     4.34501  -1.13851  -0.59683 
 H                     3.55995  -1.65515   0.9028 
 H                     1.00465  -0.56048   1.41546 
 
 NAtoms=     30 NQM=     30 NQMF=      0 NMic=      0 NMicF=      0 NTot=     30.
                    Isotopes and Nuclear Properties:
 (Nuclear quadrupole moments (NQMom) in fm**2, nuclear magnetic moments (NMagM)
  in nuclear magnetons)

  Atom         1           2           3           4           5           6           7           8           9          10
 IAtWgt=          12           1           1          12          12           1           1          12           1          12
 AtmWgt=  12.0000000   1.0078250   1.0078250  12.0000000  12.0000000   1.0078250   1.0078250  12.0000000   1.0078250  12.0000000
 NucSpn=           0           1           1           0           0           1           1           0           1           0
 AtZEff=   0.0000000   0.0000000   0.0000000   0.0000000   0.0000000   0.0000000   0.0000000   0.0000000   0.0000000   0.0000000
 NQMom=    0.0000000   0.0000000   0.0000000   0.0000000   0.0000000   0.0000000   0.0000000   0.0000000   0.0000000   0.0000000
 NMagM=    0.0000000   2.7928460   2.7928460   0.0000000   0.0000000   2.7928460   2.7928460   0.0000000   2.7928460   0.0000000

  Atom        11          12          13          14          15          16          17          18          19          20
 IAtWgt=           1           1          12          12           1           1           1          16          16           1
 AtmWgt=   1.0078250   1.0078250  12.0000000  12.0000000   1.0078250   1.0078250   1.0078250  15.9949146  15.9949146   1.0078250
 NucSpn=           1           1           0           0           1           1           1           0           0           1
 AtZEff=   0.0000000   0.0000000   0.0000000   0.0000000   0.0000000   0.0000000   0.0000000   0.0000000   0.0000000   0.0000000
 NQMom=    0.0000000   0.0000000   0.0000000   0.0000000   0.0000000   0.0000000   0.0000000   0.0000000   0.0000000   0.0000000
 NMagM=    2.7928460   2.7928460   0.0000000   0.0000000   2.7928460   2.7928460   2.7928460   0.0000000   0.0000000   2.7928460

  Atom        21          22          23          24          25          26          27          28          29          30
 IAtWgt=           1          12           1           1           1          12           1           1           1           1
 AtmWgt=   1.0078250  12.0000000   1.0078250   1.0078250   1.0078250  12.0000000   1.0078250   1.0078250   1.0078250   1.0078250
 NucSpn=           1           0           1           1           1           0           1           1           1           1
 AtZEff=   0.0000000   0.0000000   0.0000000   0.0000000   0.0000000   0.0000000   0.0000000   0.0000000   0.0000000   0.0000000
 NQMom=    0.0000000   0.0000000   0.0000000   0.0000000   0.0000000   0.0000000   0.0000000   0.0000000   0.0000000   0.0000000
 NMagM=    2.7928460   0.0000000   2.7928460   2.7928460   2.7928460   0.0000000   2.7928460   2.7928460   2.7928460   2.7928460
 Leave Link  101 at Sat Jun 27 19:17:29 2015, MaxMem= 3758096384 cpu:       0.7
 (Enter /share/apps/g09/l103.exe)

 GradGradGradGradGradGradGradGradGradGradGradGradGradGradGradGradGradGrad
 Berny optimization.
 Initialization pass.
                           ----------------------------
                           !    Initial Parameters    !
                           ! (Angstroms and Degrees)  !
 --------------------------                            --------------------------
 ! Name  Definition              Value          Derivative Info.                !
 --------------------------------------------------------------------------------
 ! R1    R(1,2)                  1.0953         calculate D2E/DX2 analytically  !
 ! R2    R(1,3)                  1.0934         calculate D2E/DX2 analytically  !
 ! R3    R(1,4)                  1.5346         calculate D2E/DX2 analytically  !
 ! R4    R(1,16)                 1.0942         calculate D2E/DX2 analytically  !
 ! R5    R(4,5)                  1.5333         calculate D2E/DX2 analytically  !
 ! R6    R(4,8)                  1.5361         calculate D2E/DX2 analytically  !
 ! R7    R(4,21)                 1.0944         calculate D2E/DX2 analytically  !
 ! R8    R(5,6)                  1.092          calculate D2E/DX2 analytically  !
 ! R9    R(5,7)                  1.0936         calculate D2E/DX2 analytically  !
 ! R10   R(5,17)                 1.0954         calculate D2E/DX2 analytically  !
 ! R11   R(8,9)                  1.0942         calculate D2E/DX2 analytically  !
 ! R12   R(8,10)                 1.5437         calculate D2E/DX2 analytically  !
 ! R13   R(8,18)                 1.4537         calculate D2E/DX2 analytically  !
 ! R14   R(10,11)                1.0935         calculate D2E/DX2 analytically  !
 ! R15   R(10,12)                1.093          calculate D2E/DX2 analytically  !
 ! R16   R(10,13)                1.5064         calculate D2E/DX2 analytically  !
 ! R17   R(13,14)                1.4948         calculate D2E/DX2 analytically  !
 ! R18   R(13,30)                1.0865         calculate D2E/DX2 analytically  !
 ! R19   R(14,15)                1.0965         calculate D2E/DX2 analytically  !
 ! R20   R(14,22)                1.5353         calculate D2E/DX2 analytically  !
 ! R21   R(14,26)                1.5473         calculate D2E/DX2 analytically  !
 ! R22   R(18,19)                1.6761         calculate D2E/DX2 analytically  !
 ! R23   R(19,20)                0.9663         calculate D2E/DX2 analytically  !
 ! R24   R(22,23)                1.0953         calculate D2E/DX2 analytically  !
 ! R25   R(22,24)                1.0937         calculate D2E/DX2 analytically  !
 ! R26   R(22,25)                1.0911         calculate D2E/DX2 analytically  !
 ! R27   R(26,27)                1.0934         calculate D2E/DX2 analytically  !
 ! R28   R(26,28)                1.0942         calculate D2E/DX2 analytically  !
 ! R29   R(26,29)                1.0943         calculate D2E/DX2 analytically  !
 ! A1    A(2,1,3)              107.3223         calculate D2E/DX2 analytically  !
 ! A2    A(2,1,4)              111.7116         calculate D2E/DX2 analytically  !
 ! A3    A(2,1,16)             107.799          calculate D2E/DX2 analytically  !
 ! A4    A(3,1,4)              110.7105         calculate D2E/DX2 analytically  !
 ! A5    A(3,1,16)             107.634          calculate D2E/DX2 analytically  !
 ! A6    A(4,1,16)             111.4654         calculate D2E/DX2 analytically  !
 ! A7    A(1,4,5)              111.9148         calculate D2E/DX2 analytically  !
 ! A8    A(1,4,8)              110.5838         calculate D2E/DX2 analytically  !
 ! A9    A(1,4,21)             108.1643         calculate D2E/DX2 analytically  !
 ! A10   A(5,4,8)              113.3043         calculate D2E/DX2 analytically  !
 ! A11   A(5,4,21)             107.8186         calculate D2E/DX2 analytically  !
 ! A12   A(8,4,21)             104.6309         calculate D2E/DX2 analytically  !
 ! A13   A(4,5,6)              110.8316         calculate D2E/DX2 analytically  !
 ! A14   A(4,5,7)              110.4557         calculate D2E/DX2 analytically  !
 ! A15   A(4,5,17)             112.0978         calculate D2E/DX2 analytically  !
 ! A16   A(6,5,7)              107.9752         calculate D2E/DX2 analytically  !
 ! A17   A(6,5,17)             108.1664         calculate D2E/DX2 analytically  !
 ! A18   A(7,5,17)             107.1459         calculate D2E/DX2 analytically  !
 ! A19   A(4,8,9)              108.646          calculate D2E/DX2 analytically  !
 ! A20   A(4,8,10)             117.092          calculate D2E/DX2 analytically  !
 ! A21   A(4,8,18)             112.4554         calculate D2E/DX2 analytically  !
 ! A22   A(9,8,10)             112.0545         calculate D2E/DX2 analytically  !
 ! A23   A(9,8,18)             107.7852         calculate D2E/DX2 analytically  !
 ! A24   A(10,8,18)             98.1933         calculate D2E/DX2 analytically  !
 ! A25   A(8,10,11)            112.7193         calculate D2E/DX2 analytically  !
 ! A26   A(8,10,12)            111.1622         calculate D2E/DX2 analytically  !
 ! A27   A(8,10,13)            101.2787         calculate D2E/DX2 analytically  !
 ! A28   A(11,10,12)           107.9262         calculate D2E/DX2 analytically  !
 ! A29   A(11,10,13)           112.6979         calculate D2E/DX2 analytically  !
 ! A30   A(12,10,13)           111.0284         calculate D2E/DX2 analytically  !
 ! A31   A(10,13,14)           122.8933         calculate D2E/DX2 analytically  !
 ! A32   A(10,13,30)           117.8898         calculate D2E/DX2 analytically  !
 ! A33   A(14,13,30)           117.004          calculate D2E/DX2 analytically  !
 ! A34   A(13,14,15)           107.6897         calculate D2E/DX2 analytically  !
 ! A35   A(13,14,22)           111.3847         calculate D2E/DX2 analytically  !
 ! A36   A(13,14,26)           110.3033         calculate D2E/DX2 analytically  !
 ! A37   A(15,14,22)           108.2475         calculate D2E/DX2 analytically  !
 ! A38   A(15,14,26)           107.7914         calculate D2E/DX2 analytically  !
 ! A39   A(22,14,26)           111.2661         calculate D2E/DX2 analytically  !
 ! A40   A(8,18,19)            102.7176         calculate D2E/DX2 analytically  !
 ! A41   A(18,19,20)            95.0321         calculate D2E/DX2 analytically  !
 ! A42   A(14,22,23)           110.9218         calculate D2E/DX2 analytically  !
 ! A43   A(14,22,24)           110.7884         calculate D2E/DX2 analytically  !
 ! A44   A(14,22,25)           110.323          calculate D2E/DX2 analytically  !
 ! A45   A(23,22,24)           107.7473         calculate D2E/DX2 analytically  !
 ! A46   A(23,22,25)           108.3956         calculate D2E/DX2 analytically  !
 ! A47   A(24,22,25)           108.5734         calculate D2E/DX2 analytically  !
 ! A48   A(14,26,27)           111.633          calculate D2E/DX2 analytically  !
 ! A49   A(14,26,28)           110.3446         calculate D2E/DX2 analytically  !
 ! A50   A(14,26,29)           110.8835         calculate D2E/DX2 analytically  !
 ! A51   A(27,26,28)           107.9086         calculate D2E/DX2 analytically  !
 ! A52   A(27,26,29)           108.0055         calculate D2E/DX2 analytically  !
 ! A53   A(28,26,29)           107.9291         calculate D2E/DX2 analytically  !
 ! D1    D(2,1,4,5)            -61.1996         calculate D2E/DX2 analytically  !
 ! D2    D(2,1,4,8)             66.1439         calculate D2E/DX2 analytically  !
 ! D3    D(2,1,4,21)          -179.8282         calculate D2E/DX2 analytically  !
 ! D4    D(3,1,4,5)             58.3494         calculate D2E/DX2 analytically  !
 ! D5    D(3,1,4,8)           -174.3072         calculate D2E/DX2 analytically  !
 ! D6    D(3,1,4,21)           -60.2792         calculate D2E/DX2 analytically  !
 ! D7    D(16,1,4,5)           178.1291         calculate D2E/DX2 analytically  !
 ! D8    D(16,1,4,8)           -54.5274         calculate D2E/DX2 analytically  !
 ! D9    D(16,1,4,21)           59.5005         calculate D2E/DX2 analytically  !
 ! D10   D(1,4,5,6)            179.0065         calculate D2E/DX2 analytically  !
 ! D11   D(1,4,5,7)            -61.3674         calculate D2E/DX2 analytically  !
 ! D12   D(1,4,5,17)            58.0413         calculate D2E/DX2 analytically  !
 ! D13   D(8,4,5,6)             53.1388         calculate D2E/DX2 analytically  !
 ! D14   D(8,4,5,7)            172.7649         calculate D2E/DX2 analytically  !
 ! D15   D(8,4,5,17)           -67.8264         calculate D2E/DX2 analytically  !
 ! D16   D(21,4,5,6)           -62.1601         calculate D2E/DX2 analytically  !
 ! D17   D(21,4,5,7)            57.466          calculate D2E/DX2 analytically  !
 ! D18   D(21,4,5,17)          176.8747         calculate D2E/DX2 analytically  !
 ! D19   D(1,4,8,9)             56.6326         calculate D2E/DX2 analytically  !
 ! D20   D(1,4,8,10)           -71.5189         calculate D2E/DX2 analytically  !
 ! D21   D(1,4,8,18)           175.8601         calculate D2E/DX2 analytically  !
 ! D22   D(5,4,8,9)           -176.793          calculate D2E/DX2 analytically  !
 ! D23   D(5,4,8,10)            55.0555         calculate D2E/DX2 analytically  !
 ! D24   D(5,4,8,18)           -57.5655         calculate D2E/DX2 analytically  !
 ! D25   D(21,4,8,9)           -59.6119         calculate D2E/DX2 analytically  !
 ! D26   D(21,4,8,10)          172.2367         calculate D2E/DX2 analytically  !
 ! D27   D(21,4,8,18)           59.6157         calculate D2E/DX2 analytically  !
 ! D28   D(4,8,10,11)            9.3568         calculate D2E/DX2 analytically  !
 ! D29   D(4,8,10,12)          130.6823         calculate D2E/DX2 analytically  !
 ! D30   D(4,8,10,13)         -111.3119         calculate D2E/DX2 analytically  !
 ! D31   D(9,8,10,11)         -117.1361         calculate D2E/DX2 analytically  !
 ! D32   D(9,8,10,12)            4.1894         calculate D2E/DX2 analytically  !
 ! D33   D(9,8,10,13)          122.1952         calculate D2E/DX2 analytically  !
 ! D34   D(18,8,10,11)         129.8288         calculate D2E/DX2 analytically  !
 ! D35   D(18,8,10,12)        -108.8457         calculate D2E/DX2 analytically  !
 ! D36   D(18,8,10,13)           9.1601         calculate D2E/DX2 analytically  !
 ! D37   D(4,8,18,19)          -70.7697         calculate D2E/DX2 analytically  !
 ! D38   D(9,8,18,19)           48.959          calculate D2E/DX2 analytically  !
 ! D39   D(10,8,18,19)         165.3559         calculate D2E/DX2 analytically  !
 ! D40   D(8,10,13,14)        -108.0322         calculate D2E/DX2 analytically  !
 ! D41   D(8,10,13,30)          89.3947         calculate D2E/DX2 analytically  !
 ! D42   D(11,10,13,14)        131.284          calculate D2E/DX2 analytically  !
 ! D43   D(11,10,13,30)        -31.289          calculate D2E/DX2 analytically  !
 ! D44   D(12,10,13,14)         10.0704         calculate D2E/DX2 analytically  !
 ! D45   D(12,10,13,30)       -152.5026         calculate D2E/DX2 analytically  !
 ! D46   D(10,13,14,15)         30.4468         calculate D2E/DX2 analytically  !
 ! D47   D(10,13,14,22)        148.9924         calculate D2E/DX2 analytically  !
 ! D48   D(10,13,14,26)        -86.938          calculate D2E/DX2 analytically  !
 ! D49   D(30,13,14,15)       -166.8363         calculate D2E/DX2 analytically  !
 ! D50   D(30,13,14,22)        -48.2908         calculate D2E/DX2 analytically  !
 ! D51   D(30,13,14,26)         75.7788         calculate D2E/DX2 analytically  !
 ! D52   D(13,14,22,23)         61.2085         calculate D2E/DX2 analytically  !
 ! D53   D(13,14,22,24)       -179.175          calculate D2E/DX2 analytically  !
 ! D54   D(13,14,22,25)        -58.9153         calculate D2E/DX2 analytically  !
 ! D55   D(15,14,22,23)        179.4192         calculate D2E/DX2 analytically  !
 ! D56   D(15,14,22,24)        -60.9643         calculate D2E/DX2 analytically  !
 ! D57   D(15,14,22,25)         59.2954         calculate D2E/DX2 analytically  !
 ! D58   D(26,14,22,23)        -62.3151         calculate D2E/DX2 analytically  !
 ! D59   D(26,14,22,24)         57.3014         calculate D2E/DX2 analytically  !
 ! D60   D(26,14,22,25)        177.5611         calculate D2E/DX2 analytically  !
 ! D61   D(13,14,26,27)         57.2481         calculate D2E/DX2 analytically  !
 ! D62   D(13,14,26,28)        177.2391         calculate D2E/DX2 analytically  !
 ! D63   D(13,14,26,29)        -63.231          calculate D2E/DX2 analytically  !
 ! D64   D(15,14,26,27)        -60.0738         calculate D2E/DX2 analytically  !
 ! D65   D(15,14,26,28)         59.9172         calculate D2E/DX2 analytically  !
 ! D66   D(15,14,26,29)        179.4471         calculate D2E/DX2 analytically  !
 ! D67   D(22,14,26,27)       -178.6139         calculate D2E/DX2 analytically  !
 ! D68   D(22,14,26,28)        -58.6229         calculate D2E/DX2 analytically  !
 ! D69   D(22,14,26,29)         60.907          calculate D2E/DX2 analytically  !
 ! D70   D(8,18,19,20)         132.8064         calculate D2E/DX2 analytically  !
 --------------------------------------------------------------------------------
 Trust Radius=3.00D-01 FncErr=1.00D-07 GrdErr=1.00D-06
 Number of steps in this run= 162 maximum allowed number of steps= 180.
 Search for a saddle point of order  1.
 GradGradGradGradGradGradGradGradGradGradGradGradGradGradGradGradGradGrad

 Leave Link  103 at Sat Jun 27 19:17:29 2015, MaxMem= 3758096384 cpu:       0.1
 (Enter /share/apps/g09/l202.exe)
                          Input orientation:                          
 ---------------------------------------------------------------------
 Center     Atomic      Atomic             Coordinates (Angstroms)
 Number     Number       Type             X           Y           Z
 ---------------------------------------------------------------------
      1          6           0       -3.232302   -1.139946   -0.575997
      2          1           0       -2.814550   -2.148348   -0.484599
      3          1           0       -4.224698   -1.155894   -0.117384
      4          6           0       -2.338586   -0.091733    0.100500
      5          6           0       -2.186065   -0.353942    1.603496
      6          1           0       -1.533476    0.391126    2.063439
      7          1           0       -3.158715   -0.303703    2.100861
      8          6           0       -0.995242    0.028204   -0.634867
      9          1           0       -1.191018    0.270587   -1.683752
     10          6           0       -0.005220   -1.146849   -0.486535
     11          1           0       -0.451165   -2.015162    0.006263
     12          1           0        0.372633   -1.469719   -1.459956
     13          6           0        1.086738   -0.510417    0.333173
     14          6           0        2.426573   -0.161835   -0.230453
     15          1           0        2.289444    0.078374   -1.291507
     16          1           0       -3.362860   -0.927286   -1.641371
     17          1           0       -1.769397   -1.346002    1.808514
     18          8           0       -0.153619    1.078747   -0.085983
     19          8           0       -0.947799    2.475226   -0.563815
     20          1           0       -0.906709    2.897398    0.304402
     21          1           0       -2.809450    0.888492   -0.022345
     22          6           0        3.024764    1.067905    0.467437
     23          1           0        3.170898    0.878539    1.536291
     24          1           0        3.997717    1.322957    0.037984
     25          1           0        2.360544    1.926471    0.357531
     26          6           0        3.379723   -1.377318   -0.140236
     27          1           0        2.970241   -2.249882   -0.656525
     28          1           0        4.345012   -1.138512   -0.596832
     29          1           0        3.559951   -1.655154    0.902795
     30          1           0        1.004646   -0.560480    1.415458
 ---------------------------------------------------------------------
                    Distance matrix (angstroms):
                    1          2          3          4          5
     1  C    0.000000
     2  H    1.095329   0.000000
     3  H    1.093357   1.763045   0.000000
     4  C    1.534642   2.190559   2.176541   0.000000
     5  C    2.542165   2.824009   2.785782   1.533301   0.000000
     6  H    3.492394   3.818714   3.793670   2.175887   1.092038
     7  H    2.805403   3.194647   2.604450   2.172323   1.093592
     8  C    2.524377   2.840747   3.478399   1.536139   2.564052
     9  H    2.717272   3.150408   3.700212   2.152149   3.490867
    10  C    3.228329   2.982505   4.235605   2.627257   3.122982
    11  H    2.973172   2.417493   3.872103   2.696445   2.884559
    12  H    3.726351   3.401469   4.799629   3.418271   4.144470
    13  C    4.458363   4.309480   5.369450   3.458653   3.514178
    14  C    5.753170   5.610721   6.726094   4.777152   4.967565
    15  H    5.699644   5.626735   6.733203   4.835833   5.347721
    16  H    1.094208   1.769112   1.765662   2.186641   3.498962
    17  H    2.805074   2.644706   3.126296   2.194192   1.095366
    18  O    3.826356   4.201618   4.644167   2.485735   3.006289
    19  O    4.276514   4.986830   4.911456   2.994141   3.772894
    20  H    4.741691   5.451783   5.255105   3.320655   3.727681
    21  H    2.144737   3.071824   2.488267   1.094370   2.139068
    22  C    6.716713   6.734110   7.605393   5.499539   5.519512
    23  H    7.038254   7.005114   7.846553   5.775581   5.497325
    24  H    7.662639   7.663552   8.589351   6.492611   6.595603
    25  H    6.446264   6.640401   7.286421   5.120648   5.236828
    26  C    6.630619   6.251567   7.607678   5.865982   5.921646
    27  H    6.301586   5.788236   7.297577   5.780514   5.940520
    28  H    7.577343   7.231300   8.583129   6.800919   6.936279
    29  H    6.970435   6.542352   7.867070   6.154730   5.933029
    30  H    4.717351   4.551681   5.481803   3.622988   3.202913
                    6          7          8          9         10
     6  H    0.000000
     7  H    1.767934   0.000000
     8  C    2.775295   3.503568   0.000000
     9  H    3.764737   4.304060   1.094183   0.000000
    10  C    3.347133   4.165338   1.543663   2.201947   0.000000
    11  H    3.345683   3.827174   2.209618   2.937377   1.093473
    12  H    4.417047   5.148731   2.189892   2.350267   1.092962
    13  C    3.266821   4.603403   2.358358   3.141039   1.506433
    14  C    4.609739   6.053973   3.450867   3.922503   2.636181
    15  H    5.095900   6.429353   3.350053   3.507765   2.722983
    16  H    4.337104   3.799320   2.744381   2.480644   3.557471
    17  H    1.771513   1.761266   2.908242   3.891504   2.901591
    18  O    2.645155   3.965357   1.453700   2.069344   2.266217
    19  O    3.404255   4.439718   2.448513   2.484723   3.743508
    20  H    3.125452   4.306489   3.020321   3.306618   4.218317
    21  H    2.495191   2.459943   2.099197   2.400292   3.495968
    22  C    4.876762   6.541009   4.296103   4.799599   3.872467
    23  H    4.758843   6.463779   4.774277   5.455694   4.275716
    24  H    5.963629   7.623385   5.201803   5.567300   4.732712
    25  H    4.520044   6.202830   3.981152   4.418414   3.969204
    26  C    5.667725   6.994736   4.621739   5.098010   3.410407
    27  H    5.886985   6.996777   4.573314   4.972327   3.177884
    28  H    6.631248   8.017504   5.466350   5.815031   4.351638
    29  H    5.610468   6.957173   5.093906   5.741987   3.859930
    30  H    2.787023   4.227208   2.924027   3.888022   2.231868
                   11         12         13         14         15
    11  H    0.000000
    12  H    1.768035   0.000000
    13  C    2.176298   2.155346   0.000000
    14  C    3.431069   2.727803   1.494771   0.000000
    15  H    3.684839   2.469642   2.105412   1.096513   0.000000
    16  H    3.517974   3.779028   4.885850   6.007840   5.751721
    17  H    2.331013   3.909795   3.321497   4.813087   5.302185
    18  O    3.109552   2.942690   2.059034   2.866584   2.902170
    19  O    4.553594   4.255491   3.722632   4.295533   4.093187
    20  H    4.942636   4.880716   3.948147   4.555847   4.550738
    21  H    3.740793   4.213495   4.154951   5.344383   5.316557
    22  C    4.669054   4.145863   2.503013   1.535299   2.147964
    23  H    4.881991   4.724627   2.778563   2.181234   3.068170
    24  H    5.562068   4.814987   3.452853   2.178339   2.496944
    25  H    4.854438   4.334646   2.749836   2.170508   2.477871
    26  C    3.886388   3.285238   2.496681   1.547266   2.152481
    27  H    3.492907   2.828732   2.748240   2.199330   2.507481
    28  H    4.912795   4.078538   3.446123   2.183699   2.487719
    29  H    4.125824   3.971898   2.784183   2.190616   3.071525
    30  H    2.494257   3.081260   1.086548   2.211293   3.063740
                   16         17         18         19         20
    16  H    0.000000
    17  H    3.823108   0.000000
    18  O    4.091776   3.475524   0.000000
    19  O    4.309378   4.572171   1.676066   0.000000
    20  H    4.944382   4.583997   2.006748   0.966291   0.000000
    21  H    2.494906   3.070296   2.663397   2.505326   2.786196
    22  C    7.016381   5.532578   3.226222   4.338812   4.339367
    23  H    7.486557   5.424869   3.704628   4.891168   4.713833
    24  H    7.877939   6.596796   4.160360   5.113513   5.157833
    25  H    6.700514   5.465423   2.690048   3.477807   3.408880
    26  C    6.922309   5.505637   4.303453   5.809386   6.069959
    27  H    6.544261   5.418264   4.600412   6.138915   6.515260
    28  H    7.781193   6.573792   5.041318   6.408903   6.684412
    29  H    7.411335   5.414596   4.716195   6.287352   6.405845
    30  H    5.343581   2.909786   2.506585   4.116439   4.104223
                   21         22         23         24         25
    21  H    0.000000
    22  C    5.857485   0.000000
    23  H    6.180130   1.095292   0.000000
    24  H    6.821284   1.093672   1.768067   0.000000
    25  H    5.286827   1.091056   1.773220   1.773887   0.000000
    26  C    6.591939   2.544480   2.818376   2.775818   3.493067
    27  H    6.607299   3.503423   3.825666   3.781961   4.340733
    28  H    7.458224   2.782804   3.161843   2.565626   3.773996
    29  H    6.920642   2.809095   2.640507   3.131882   3.816271
    30  H    4.325983   2.762473   2.603464   3.795161   3.023672
                   26         27         28         29         30
    26  C    0.000000
    27  H    1.093434   0.000000
    28  H    1.094208   1.768814   0.000000
    29  H    1.094344   1.770011   1.769780   0.000000
    30  H    2.954386   3.318246   3.942268   2.826786   0.000000
 Stoichiometry    C9H19O2(2)
 Framework group  C1[X(C9H19O2)]
 Deg. of freedom    84
 Full point group                 C1      NOp   1
 Largest Abelian subgroup         C1      NOp   1
 Largest concise Abelian subgroup C1      NOp   1
                         Standard orientation:                         
 ---------------------------------------------------------------------
 Center     Atomic      Atomic             Coordinates (Angstroms)
 Number     Number       Type             X           Y           Z
 ---------------------------------------------------------------------
      1          6           0       -3.232302   -1.139946   -0.575997
      2          1           0       -2.814550   -2.148348   -0.484599
      3          1           0       -4.224698   -1.155894   -0.117384
      4          6           0       -2.338586   -0.091733    0.100500
      5          6           0       -2.186065   -0.353942    1.603496
      6          1           0       -1.533476    0.391126    2.063439
      7          1           0       -3.158715   -0.303703    2.100861
      8          6           0       -0.995242    0.028204   -0.634867
      9          1           0       -1.191018    0.270587   -1.683752
     10          6           0       -0.005220   -1.146849   -0.486535
     11          1           0       -0.451165   -2.015162    0.006263
     12          1           0        0.372633   -1.469719   -1.459956
     13          6           0        1.086738   -0.510417    0.333173
     14          6           0        2.426573   -0.161835   -0.230453
     15          1           0        2.289444    0.078374   -1.291507
     16          1           0       -3.362860   -0.927286   -1.641371
     17          1           0       -1.769397   -1.346002    1.808514
     18          8           0       -0.153619    1.078747   -0.085983
     19          8           0       -0.947799    2.475226   -0.563815
     20          1           0       -0.906709    2.897398    0.304402
     21          1           0       -2.809450    0.888492   -0.022345
     22          6           0        3.024764    1.067905    0.467437
     23          1           0        3.170898    0.878539    1.536291
     24          1           0        3.997717    1.322957    0.037984
     25          1           0        2.360544    1.926471    0.357531
     26          6           0        3.379723   -1.377318   -0.140236
     27          1           0        2.970241   -2.249882   -0.656525
     28          1           0        4.345012   -1.138512   -0.596832
     29          1           0        3.559951   -1.655154    0.902795
     30          1           0        1.004646   -0.560480    1.415458
 ---------------------------------------------------------------------
 Rotational constants (GHZ):      1.6301236      0.6092703      0.5163727
 Leave Link  202 at Sat Jun 27 19:17:30 2015, MaxMem= 3758096384 cpu:       0.1
 (Enter /share/apps/g09/l301.exe)
 Standard basis: 6-311G(2d,d,p) (5D, 7F)
 Ernie: Thresh=  0.10000D-02 Tol=  0.10000D-05 Strict=F.
 There are   312 symmetry adapted basis functions of A   symmetry.
 Integral buffers will be    131072 words long.
 Raffenetti 2 integral format.
 Two-electron integral symmetry is turned on.
   312 basis functions,   504 primitive gaussians,   323 cartesian basis functions
    45 alpha electrons       44 beta electrons
       nuclear repulsion energy       681.0952821148 Hartrees.
 IExCor=  402 DFT=T Ex+Corr=B3LYP ExCW=0 ScaHFX=  0.200000
 ScaDFX=  0.800000  0.720000  1.000000  0.810000 ScalE2=  1.000000  1.000000
 IRadAn=      0 IRanWt=     -1 IRanGd=            0 ICorTp=0
 NAtoms=   30 NActive=   30 NUniq=   30 SFac= 7.50D-01 NAtFMM=   80 NAOKFM=F Big=F
 Leave Link  301 at Sat Jun 27 19:17:30 2015, MaxMem= 3758096384 cpu:       0.6
 (Enter /share/apps/g09/l302.exe)
 NPDir=0 NMtPBC=     1 NCelOv=     1 NCel=       1 NClECP=     1 NCelD=      1
         NCelK=      1 NCelE2=     1 NClLst=     1 CellRange=     0.0.
 One-electron integrals computed using PRISM.
 NBasis=   312 RedAO= T  NBF=   312
 NBsUse=   312 1.00D-06 NBFU=   312
 Precomputing XC quadrature grid using
 IXCGrd= 2 IRadAn=           0 IRanWt=          -1 IRanGd=           0 AccXCQ= 1.00D-10.
 NRdTot=    1908 NPtTot=      242968 NUsed=      256727 NTot=      256759
 NSgBfM=   323   323   323   323   323 NAtAll=    30    30.
 Leave Link  302 at Sat Jun 27 19:17:30 2015, MaxMem= 3758096384 cpu:       4.4
 (Enter /share/apps/g09/l303.exe)
 DipDrv:  MaxL=1.
 Leave Link  303 at Sat Jun 27 19:17:31 2015, MaxMem= 3758096384 cpu:       0.5
 (Enter /share/apps/g09/l401.exe)
 Harris functional with IExCor=  402 diagonalized for initial guess.
 ExpMin= 1.03D-01 ExpMax= 8.59D+03 ExpMxC= 1.30D+03 IAcc=1 IRadAn=         1 AccDes= 0.00D+00
 HarFok:  IExCor=  402 AccDes= 0.00D+00 IRadAn=         1 IDoV= 1
 ScaDFX=  1.000000  1.000000  1.000000  1.000000
 FoFCou: FMM=F IPFlag=           0 FMFlag=      100000 FMFlg1=           0
         NFxFlg=           0 DoJE=T BraDBF=F KetDBF=T FulRan=T
         Omega=  0.000000  0.000000  1.000000  0.000000  0.000000 ICntrl=     500 IOpCl=  0
         NMat0=    1 NMatS0=    1 NMatT0=    0 NMatD0=    1 NMtDS0=    0 NMtDT0=    0
         I1Cent=           4 NGrid=           0.
 Petite list used in FoFCou.
 Harris En= -504.954481188342    
 Initial guess orbital symmetries:
 Alpha Orbitals:
       Occupied  (A) (A) (A) (A) (A) (A) (A) (A) (A) (A) (A) (A)
                 (A) (A) (A) (A) (A) (A) (A) (A) (A) (A) (A) (A)
                 (A) (A) (A) (A) (A) (A) (A) (A) (A) (A) (A) (A)
                 (A) (A) (A) (A) (A) (A) (A) (A) (A)
       Virtual   (A) (A) (A) (A) (A) (A) (A) (A) (A) (A) (A) (A)
                 (A) (A) (A) (A) (A) (A) (A) (A) (A) (A) (A) (A)
                 (A) (A) (A) (A) (A) (A) (A) (A) (A) (A) (A) (A)
                 (A) (A) (A) (A) (A) (A) (A) (A) (A) (A) (A) (A)
                 (A) (A) (A) (A) (A) (A) (A) (A) (A) (A) (A) (A)
                 (A) (A) (A) (A) (A) (A) (A) (A) (A) (A) (A) (A)
                 (A) (A) (A) (A) (A) (A) (A) (A) (A) (A) (A) (A)
                 (A) (A) (A) (A) (A) (A) (A) (A) (A) (A) (A) (A)
                 (A) (A) (A) (A) (A) (A) (A) (A) (A) (A) (A) (A)
                 (A) (A) (A) (A) (A) (A) (A) (A) (A) (A) (A) (A)
                 (A) (A) (A) (A) (A) (A) (A) (A) (A) (A) (A) (A)
                 (A) (A) (A) (A) (A) (A) (A) (A) (A) (A) (A) (A)
                 (A) (A) (A) (A) (A) (A) (A) (A) (A) (A) (A) (A)
                 (A) (A) (A) (A) (A) (A) (A) (A) (A) (A) (A) (A)
                 (A) (A) (A) (A) (A) (A) (A) (A) (A) (A) (A) (A)
                 (A) (A) (A) (A) (A) (A) (A) (A) (A) (A) (A) (A)
                 (A) (A) (A) (A) (A) (A) (A) (A) (A) (A) (A) (A)
                 (A) (A) (A) (A) (A) (A) (A) (A) (A) (A) (A) (A)
                 (A) (A) (A) (A) (A) (A) (A) (A) (A) (A) (A) (A)
                 (A) (A) (A) (A) (A) (A) (A) (A) (A) (A) (A) (A)
                 (A) (A) (A) (A) (A) (A) (A) (A) (A) (A) (A) (A)
                 (A) (A) (A) (A) (A) (A) (A) (A) (A) (A) (A) (A)
                 (A) (A) (A)
 Beta  Orbitals:
       Occupied  (A) (A) (A) (A) (A) (A) (A) (A) (A) (A) (A) (A)
                 (A) (A) (A) (A) (A) (A) (A) (A) (A) (A) (A) (A)
                 (A) (A) (A) (A) (A) (A) (A) (A) (A) (A) (A) (A)
                 (A) (A) (A) (A) (A) (A) (A) (A)
       Virtual   (A) (A) (A) (A) (A) (A) (A) (A) (A) (A) (A) (A)
                 (A) (A) (A) (A) (A) (A) (A) (A) (A) (A) (A) (A)
                 (A) (A) (A) (A) (A) (A) (A) (A) (A) (A) (A) (A)
                 (A) (A) (A) (A) (A) (A) (A) (A) (A) (A) (A) (A)
                 (A) (A) (A) (A) (A) (A) (A) (A) (A) (A) (A) (A)
                 (A) (A) (A) (A) (A) (A) (A) (A) (A) (A) (A) (A)
                 (A) (A) (A) (A) (A) (A) (A) (A) (A) (A) (A) (A)
                 (A) (A) (A) (A) (A) (A) (A) (A) (A) (A) (A) (A)
                 (A) (A) (A) (A) (A) (A) (A) (A) (A) (A) (A) (A)
                 (A) (A) (A) (A) (A) (A) (A) (A) (A) (A) (A) (A)
                 (A) (A) (A) (A) (A) (A) (A) (A) (A) (A) (A) (A)
                 (A) (A) (A) (A) (A) (A) (A) (A) (A) (A) (A) (A)
                 (A) (A) (A) (A) (A) (A) (A) (A) (A) (A) (A) (A)
                 (A) (A) (A) (A) (A) (A) (A) (A) (A) (A) (A) (A)
                 (A) (A) (A) (A) (A) (A) (A) (A) (A) (A) (A) (A)
                 (A) (A) (A) (A) (A) (A) (A) (A) (A) (A) (A) (A)
                 (A) (A) (A) (A) (A) (A) (A) (A) (A) (A) (A) (A)
                 (A) (A) (A) (A) (A) (A) (A) (A) (A) (A) (A) (A)
                 (A) (A) (A) (A) (A) (A) (A) (A) (A) (A) (A) (A)
                 (A) (A) (A) (A) (A) (A) (A) (A) (A) (A) (A) (A)
                 (A) (A) (A) (A) (A) (A) (A) (A) (A) (A) (A) (A)
                 (A) (A) (A) (A) (A) (A) (A) (A) (A) (A) (A) (A)
                 (A) (A) (A) (A)
 The electronic state of the initial guess is 2-A.
 Initial guess <Sx>= 0.0000 <Sy>= 0.0000 <Sz>= 0.5000 <S**2>= 0.7500 S= 0.5000
 Leave Link  401 at Sat Jun 27 19:17:32 2015, MaxMem= 3758096384 cpu:       9.1
 (Enter /share/apps/g09/l502.exe)
 UHF open shell SCF:
 Requested convergence on RMS density matrix=1.00D-08 within 128 cycles.
 Requested convergence on MAX density matrix=1.00D-06.
 Requested convergence on             energy=1.00D-06.
 No special actions if energy rises.
 Using DIIS extrapolation, IDIIS=  1040.
 Integral symmetry usage will be decided dynamically.
       256444 words used for storage of precomputed grid.
 Keep R1 and R2 ints in memory in canonical form, NReq=2755662467.
 IEnd=      593894 IEndB=      593894 NGot=  3758096384 MDV=  1019561153
 LenX=  1019561153 LenY=  1019456383
 Symmetry not used in FoFDir.
 MinBra= 0 MaxBra= 2 Meth= 1.
 IRaf=       0 NMat=   1 IRICut=       1 DoRegI=T DoRafI=F ISym2E= 0 JSym2E=0.
 Integral accuracy reduced to 1.0D-05 until final iterations.

 Cycle   1  Pass 0  IDiag  1:
 E= -504.406206000436    
 DIIS: error= 3.39D-02 at cycle   1 NSaved=   1.
 NSaved= 1 IEnMin= 1 EnMin= -504.406206000436     IErMin= 1 ErrMin= 3.39D-02
 ErrMax= 3.39D-02 EMaxC= 1.00D-01 BMatC= 1.74D+00 BMatP= 1.74D+00
 IDIUse=3 WtCom= 6.61D-01 WtEn= 3.39D-01
 Coeff-Com:  0.100D+01
 Coeff-En:   0.100D+01
 Coeff:      0.100D+01
 Gap=     0.132 Goal=   None    Shift=    0.000
 Gap=     0.184 Goal=   None    Shift=    0.000
 GapD=    0.132 DampG=1.000 DampE=0.500 DampFc=0.5000 IDamp=-1.
 Damping current iteration by 5.00D-01
 RMSDP=3.65D-03 MaxDP=1.44D-01              OVMax= 2.75D-01

 Cycle   2  Pass 0  IDiag  1:
 E= -504.567165206835     Delta-E=       -0.160959206399 Rises=F Damp=T
 DIIS: error= 8.81D-03 at cycle   2 NSaved=   2.
 NSaved= 2 IEnMin= 2 EnMin= -504.567165206835     IErMin= 2 ErrMin= 8.81D-03
 ErrMax= 8.81D-03 EMaxC= 1.00D-01 BMatC= 1.51D-01 BMatP= 1.74D+00
 IDIUse=3 WtCom= 9.12D-01 WtEn= 8.81D-02
 Coeff-Com:  0.130D+00 0.870D+00
 Coeff-En:   0.221D+00 0.779D+00
 Coeff:      0.138D+00 0.862D+00
 Gap=     0.131 Goal=   None    Shift=    0.000
 Gap=     0.231 Goal=   None    Shift=    0.000
 RMSDP=1.05D-03 MaxDP=4.75D-02 DE=-1.61D-01 OVMax= 2.31D-01

 Cycle   3  Pass 0  IDiag  1:
 E= -504.765919727166     Delta-E=       -0.198754520331 Rises=F Damp=F
 DIIS: error= 1.99D-02 at cycle   3 NSaved=   3.
 NSaved= 3 IEnMin= 3 EnMin= -504.765919727166     IErMin= 2 ErrMin= 8.81D-03
 ErrMax= 1.99D-02 EMaxC= 1.00D-01 BMatC= 2.95D-01 BMatP= 1.51D-01
 IDIUse=2 WtCom= 0.00D+00 WtEn= 1.00D+00
 Coeff-En:   0.000D+00 0.000D+00 0.100D+01
 Coeff:      0.000D+00 0.000D+00 0.100D+01
 Gap=     0.127 Goal=   None    Shift=    0.000
 Gap=     0.229 Goal=   None    Shift=    0.000
 RMSDP=2.52D-03 MaxDP=1.01D-01 DE=-1.99D-01 OVMax= 4.92D-01

 Cycle   4  Pass 0  IDiag  1:
 E= -504.239800874036     Delta-E=        0.526118853130 Rises=F Damp=F
 DIIS: error= 4.89D-02 at cycle   4 NSaved=   4.
 NSaved= 4 IEnMin= 3 EnMin= -504.765919727166     IErMin= 2 ErrMin= 8.81D-03
 ErrMax= 4.89D-02 EMaxC= 1.00D-01 BMatC= 2.72D+00 BMatP= 1.51D-01
 IDIUse=2 WtCom= 0.00D+00 WtEn= 1.00D+00
 Coeff-En:   0.000D+00 0.000D+00 0.849D+00 0.151D+00
 Coeff:      0.000D+00 0.000D+00 0.849D+00 0.151D+00
 Gap=     0.159 Goal=   None    Shift=    0.000
 Gap=     0.110 Goal=   None    Shift=    0.000
 RMSDP=1.51D-03 MaxDP=6.53D-02 DE= 5.26D-01 OVMax= 3.21D-01

 Cycle   5  Pass 0  IDiag  1:
 E= -504.758729917293     Delta-E=       -0.518929043258 Rises=F Damp=F
 DIIS: error= 2.01D-02 at cycle   5 NSaved=   5.
 NSaved= 5 IEnMin= 3 EnMin= -504.765919727166     IErMin= 2 ErrMin= 8.81D-03
 ErrMax= 2.01D-02 EMaxC= 1.00D-01 BMatC= 3.39D-01 BMatP= 1.51D-01
 IDIUse=2 WtCom= 0.00D+00 WtEn= 1.00D+00
 Coeff-En:   0.000D+00 0.000D+00 0.520D+00 0.000D+00 0.480D+00
 Coeff:      0.000D+00 0.000D+00 0.520D+00 0.000D+00 0.480D+00
 Gap=     0.138 Goal=   None    Shift=    0.000
 Gap=     0.180 Goal=   None    Shift=    0.000
 RMSDP=6.18D-04 MaxDP=2.77D-02 DE=-5.19D-01 OVMax= 9.55D-02

 Cycle   6  Pass 0  IDiag  1:
 E= -504.824685787207     Delta-E=       -0.065955869914 Rises=F Damp=F
 DIIS: error= 8.51D-04 at cycle   6 NSaved=   6.
 NSaved= 6 IEnMin= 6 EnMin= -504.824685787207     IErMin= 6 ErrMin= 8.51D-04
 ErrMax= 8.51D-04 EMaxC= 1.00D-01 BMatC= 1.22D-03 BMatP= 1.51D-01
 IDIUse=3 WtCom= 9.91D-01 WtEn= 8.51D-03
 Coeff-Com: -0.214D-02-0.304D-05 0.159D+00-0.261D-01 0.215D+00 0.655D+00
 Coeff-En:   0.000D+00 0.000D+00 0.000D+00 0.000D+00 0.000D+00 0.100D+01
 Coeff:     -0.212D-02-0.301D-05 0.157D+00-0.258D-01 0.213D+00 0.658D+00
 Gap=     0.141 Goal=   None    Shift=    0.000
 Gap=     0.170 Goal=   None    Shift=    0.000
 RMSDP=8.35D-05 MaxDP=3.26D-03 DE=-6.60D-02 OVMax= 1.50D-02

 Cycle   7  Pass 0  IDiag  1:
 E= -504.824956511940     Delta-E=       -0.000270724734 Rises=F Damp=F
 DIIS: error= 1.03D-03 at cycle   7 NSaved=   7.
 NSaved= 7 IEnMin= 7 EnMin= -504.824956511940     IErMin= 6 ErrMin= 8.51D-04
 ErrMax= 1.03D-03 EMaxC= 1.00D-01 BMatC= 9.07D-04 BMatP= 1.22D-03
 IDIUse=3 WtCom= 9.91D-01 WtEn= 8.51D-03
 Coeff-Com: -0.357D-02-0.521D-02-0.194D-01 0.300D-02-0.400D-01 0.452D+00
 Coeff-Com:  0.613D+00
 Coeff-En:   0.000D+00 0.000D+00 0.000D+00 0.000D+00 0.000D+00 0.177D+00
 Coeff-En:   0.823D+00
 Coeff:     -0.354D-02-0.517D-02-0.193D-01 0.297D-02-0.396D-01 0.450D+00
 Coeff:      0.615D+00
 Gap=     0.144 Goal=   None    Shift=    0.000
 Gap=     0.169 Goal=   None    Shift=    0.000
 RMSDP=4.44D-05 MaxDP=2.40D-03 DE=-2.71D-04 OVMax= 5.76D-03

 Cycle   8  Pass 0  IDiag  1:
 E= -504.825225850094     Delta-E=       -0.000269338154 Rises=F Damp=F
 DIIS: error= 2.81D-04 at cycle   8 NSaved=   8.
 NSaved= 8 IEnMin= 8 EnMin= -504.825225850094     IErMin= 8 ErrMin= 2.81D-04
 ErrMax= 2.81D-04 EMaxC= 1.00D-01 BMatC= 5.79D-05 BMatP= 9.07D-04
 IDIUse=3 WtCom= 9.97D-01 WtEn= 2.81D-03
 Coeff-Com:  0.544D-04 0.287D-02-0.327D-01 0.443D-02-0.454D-01-0.828D-01
 Coeff-Com:  0.487D-01 0.110D+01
 Coeff-En:   0.000D+00 0.000D+00 0.000D+00 0.000D+00 0.000D+00 0.000D+00
 Coeff-En:   0.000D+00 0.100D+01
 Coeff:      0.542D-04 0.287D-02-0.326D-01 0.441D-02-0.452D-01-0.825D-01
 Coeff:      0.486D-01 0.110D+01
 Gap=     0.145 Goal=   None    Shift=    0.000
 Gap=     0.170 Goal=   None    Shift=    0.000
 RMSDP=3.38D-05 MaxDP=1.78D-03 DE=-2.69D-04 OVMax= 4.49D-03

 Cycle   9  Pass 0  IDiag  1:
 E= -504.825305918913     Delta-E=       -0.000080068819 Rises=F Damp=F
 DIIS: error= 1.69D-04 at cycle   9 NSaved=   9.
 NSaved= 9 IEnMin= 9 EnMin= -504.825305918913     IErMin= 9 ErrMin= 1.69D-04
 ErrMax= 1.69D-04 EMaxC= 1.00D-01 BMatC= 3.15D-05 BMatP= 5.79D-05
 IDIUse=3 WtCom= 9.98D-01 WtEn= 1.69D-03
 Coeff-Com:  0.107D-02 0.217D-02-0.136D-01 0.622D-03-0.684D-02-0.215D+00
 Coeff-Com: -0.256D+00 0.583D+00 0.904D+00
 Coeff-En:   0.000D+00 0.000D+00 0.000D+00 0.000D+00 0.000D+00 0.000D+00
 Coeff-En:   0.000D+00 0.000D+00 0.100D+01
 Coeff:      0.107D-02 0.217D-02-0.136D-01 0.621D-03-0.683D-02-0.214D+00
 Coeff:     -0.255D+00 0.582D+00 0.904D+00
 Gap=     0.147 Goal=   None    Shift=    0.000
 Gap=     0.170 Goal=   None    Shift=    0.000
 RMSDP=2.56D-05 MaxDP=1.16D-03 DE=-8.01D-05 OVMax= 4.40D-03

 Cycle  10  Pass 0  IDiag  1:
 E= -504.825338171769     Delta-E=       -0.000032252856 Rises=F Damp=F
 DIIS: error= 6.64D-05 at cycle  10 NSaved=  10.
 NSaved=10 IEnMin=10 EnMin= -504.825338171769     IErMin=10 ErrMin= 6.64D-05
 ErrMax= 6.64D-05 EMaxC= 1.00D-01 BMatC= 7.11D-06 BMatP= 3.15D-05
 IDIUse=1 WtCom= 1.00D+00 WtEn= 0.00D+00
 Coeff-Com:  0.272D-03-0.677D-04-0.201D-03-0.176D-03 0.555D-02-0.579D-01
 Coeff-Com: -0.144D+00 0.206D-02 0.397D+00 0.798D+00
 Coeff:      0.272D-03-0.677D-04-0.201D-03-0.176D-03 0.555D-02-0.579D-01
 Coeff:     -0.144D+00 0.206D-02 0.397D+00 0.798D+00
 Gap=     0.147 Goal=   None    Shift=    0.000
 Gap=     0.170 Goal=   None    Shift=    0.000
 RMSDP=9.99D-06 MaxDP=4.91D-04 DE=-3.23D-05 OVMax= 1.43D-03

 Initial convergence to 1.0D-05 achieved.  Increase integral accuracy.
 Cycle  11  Pass 1  IDiag  1:
 E= -504.825356977946     Delta-E=       -0.000018806177 Rises=F Damp=F
 DIIS: error= 2.72D-05 at cycle   1 NSaved=   1.
 NSaved= 1 IEnMin= 1 EnMin= -504.825356977946     IErMin= 1 ErrMin= 2.72D-05
 ErrMax= 2.72D-05 EMaxC= 1.00D-01 BMatC= 1.84D-06 BMatP= 1.84D-06
 IDIUse=1 WtCom= 1.00D+00 WtEn= 0.00D+00
 Coeff-Com:  0.100D+01
 Coeff:      0.100D+01
 Gap=     0.147 Goal=   None    Shift=    0.000
 Gap=     0.170 Goal=   None    Shift=    0.000
 RMSDP=9.99D-06 MaxDP=4.91D-04 DE=-1.88D-05 OVMax= 3.20D-04

 Cycle  12  Pass 1  IDiag  1:
 E= -504.825356933965     Delta-E=        0.000000043981 Rises=F Damp=F
 DIIS: error= 5.03D-05 at cycle   2 NSaved=   2.
 NSaved= 2 IEnMin= 1 EnMin= -504.825356977946     IErMin= 1 ErrMin= 2.72D-05
 ErrMax= 5.03D-05 EMaxC= 1.00D-01 BMatC= 3.22D-06 BMatP= 1.84D-06
 IDIUse=1 WtCom= 1.00D+00 WtEn= 0.00D+00
 Coeff-Com:  0.581D+00 0.419D+00
 Coeff:      0.581D+00 0.419D+00
 Gap=     0.147 Goal=   None    Shift=    0.000
 Gap=     0.170 Goal=   None    Shift=    0.000
 RMSDP=3.72D-06 MaxDP=1.66D-04 DE= 4.40D-08 OVMax= 9.27D-04

 Cycle  13  Pass 1  IDiag  1:
 E= -504.825357584996     Delta-E=       -0.000000651031 Rises=F Damp=F
 DIIS: error= 1.75D-05 at cycle   3 NSaved=   3.
 NSaved= 3 IEnMin= 3 EnMin= -504.825357584996     IErMin= 3 ErrMin= 1.75D-05
 ErrMax= 1.75D-05 EMaxC= 1.00D-01 BMatC= 5.40D-07 BMatP= 1.84D-06
 IDIUse=1 WtCom= 1.00D+00 WtEn= 0.00D+00
 Coeff-Com:  0.642D-01 0.282D+00 0.654D+00
 Coeff:      0.642D-01 0.282D+00 0.654D+00
 Gap=     0.147 Goal=   None    Shift=    0.000
 Gap=     0.170 Goal=   None    Shift=    0.000
 RMSDP=1.34D-06 MaxDP=4.88D-05 DE=-6.51D-07 OVMax= 1.11D-04

 Cycle  14  Pass 1  IDiag  1:
 E= -504.825357712307     Delta-E=       -0.000000127311 Rises=F Damp=F
 DIIS: error= 6.48D-06 at cycle   4 NSaved=   4.
 NSaved= 4 IEnMin= 4 EnMin= -504.825357712307     IErMin= 4 ErrMin= 6.48D-06
 ErrMax= 6.48D-06 EMaxC= 1.00D-01 BMatC= 7.89D-08 BMatP= 5.40D-07
 IDIUse=1 WtCom= 1.00D+00 WtEn= 0.00D+00
 Coeff-Com: -0.726D-01 0.115D+00 0.338D+00 0.619D+00
 Coeff:     -0.726D-01 0.115D+00 0.338D+00 0.619D+00
 Gap=     0.147 Goal=   None    Shift=    0.000
 Gap=     0.170 Goal=   None    Shift=    0.000
 RMSDP=7.89D-07 MaxDP=3.79D-05 DE=-1.27D-07 OVMax= 2.12D-04

 Cycle  15  Pass 1  IDiag  1:
 E= -504.825357745417     Delta-E=       -0.000000033110 Rises=F Damp=F
 DIIS: error= 5.73D-06 at cycle   5 NSaved=   5.
 NSaved= 5 IEnMin= 5 EnMin= -504.825357745417     IErMin= 5 ErrMin= 5.73D-06
 ErrMax= 5.73D-06 EMaxC= 1.00D-01 BMatC= 3.09D-08 BMatP= 7.89D-08
 IDIUse=1 WtCom= 1.00D+00 WtEn= 0.00D+00
 Coeff-Com: -0.465D-01 0.142D-01-0.387D-01 0.335D+00 0.736D+00
 Coeff:     -0.465D-01 0.142D-01-0.387D-01 0.335D+00 0.736D+00
 Gap=     0.147 Goal=   None    Shift=    0.000
 Gap=     0.170 Goal=   None    Shift=    0.000
 RMSDP=4.33D-07 MaxDP=2.12D-05 DE=-3.31D-08 OVMax= 6.91D-05

 Cycle  16  Pass 1  IDiag  1:
 E= -504.825357758569     Delta-E=       -0.000000013152 Rises=F Damp=F
 DIIS: error= 4.82D-06 at cycle   6 NSaved=   6.
 NSaved= 6 IEnMin= 6 EnMin= -504.825357758569     IErMin= 6 ErrMin= 4.82D-06
 ErrMax= 4.82D-06 EMaxC= 1.00D-01 BMatC= 1.84D-08 BMatP= 3.09D-08
 IDIUse=1 WtCom= 1.00D+00 WtEn= 0.00D+00
 Coeff-Com: -0.195D-02-0.463D-01-0.259D+00-0.570D-02 0.696D+00 0.618D+00
 Coeff:     -0.195D-02-0.463D-01-0.259D+00-0.570D-02 0.696D+00 0.618D+00
 Gap=     0.147 Goal=   None    Shift=    0.000
 Gap=     0.170 Goal=   None    Shift=    0.000
 RMSDP=4.37D-07 MaxDP=2.25D-05 DE=-1.32D-08 OVMax= 8.02D-05

 Cycle  17  Pass 1  IDiag  1:
 E= -504.825357766458     Delta-E=       -0.000000007889 Rises=F Damp=F
 DIIS: error= 2.24D-06 at cycle   7 NSaved=   7.
 NSaved= 7 IEnMin= 7 EnMin= -504.825357766458     IErMin= 7 ErrMin= 2.24D-06
 ErrMax= 2.24D-06 EMaxC= 1.00D-01 BMatC= 2.76D-09 BMatP= 1.84D-08
 IDIUse=1 WtCom= 1.00D+00 WtEn= 0.00D+00
 Coeff-Com:  0.128D-01-0.316D-01-0.151D+00-0.955D-01 0.220D+00 0.398D+00
 Coeff-Com:  0.647D+00
 Coeff:      0.128D-01-0.316D-01-0.151D+00-0.955D-01 0.220D+00 0.398D+00
 Coeff:      0.647D+00
 Gap=     0.147 Goal=   None    Shift=    0.000
 Gap=     0.170 Goal=   None    Shift=    0.000
 RMSDP=1.78D-07 MaxDP=8.22D-06 DE=-7.89D-09 OVMax= 2.87D-05

 Cycle  18  Pass 1  IDiag  1:
 E= -504.825357768014     Delta-E=       -0.000000001557 Rises=F Damp=F
 DIIS: error= 5.64D-07 at cycle   8 NSaved=   8.
 NSaved= 8 IEnMin= 8 EnMin= -504.825357768014     IErMin= 8 ErrMin= 5.64D-07
 ErrMax= 5.64D-07 EMaxC= 1.00D-01 BMatC= 3.33D-10 BMatP= 2.76D-09
 IDIUse=1 WtCom= 1.00D+00 WtEn= 0.00D+00
 Coeff-Com:  0.255D-02 0.739D-04 0.227D-01-0.260D-01-0.751D-01-0.528D-01
 Coeff-Com:  0.129D+00 0.100D+01
 Coeff:      0.255D-02 0.739D-04 0.227D-01-0.260D-01-0.751D-01-0.528D-01
 Coeff:      0.129D+00 0.100D+01
 Gap=     0.147 Goal=   None    Shift=    0.000
 Gap=     0.170 Goal=   None    Shift=    0.000
 RMSDP=7.62D-08 MaxDP=3.71D-06 DE=-1.56D-09 OVMax= 1.06D-05

 Cycle  19  Pass 1  IDiag  1:
 E= -504.825357768332     Delta-E=       -0.000000000317 Rises=F Damp=F
 DIIS: error= 2.65D-07 at cycle   9 NSaved=   9.
 NSaved= 9 IEnMin= 9 EnMin= -504.825357768332     IErMin= 9 ErrMin= 2.65D-07
 ErrMax= 2.65D-07 EMaxC= 1.00D-01 BMatC= 1.55D-10 BMatP= 3.33D-10
 IDIUse=1 WtCom= 1.00D+00 WtEn= 0.00D+00
 Coeff-Com: -0.400D-02 0.123D-01 0.778D-01 0.230D-01-0.116D+00-0.201D+00
 Coeff-Com: -0.202D+00 0.518D+00 0.891D+00
 Coeff:     -0.400D-02 0.123D-01 0.778D-01 0.230D-01-0.116D+00-0.201D+00
 Coeff:     -0.202D+00 0.518D+00 0.891D+00
 Gap=     0.147 Goal=   None    Shift=    0.000
 Gap=     0.170 Goal=   None    Shift=    0.000
 RMSDP=4.67D-08 MaxDP=1.92D-06 DE=-3.17D-10 OVMax= 6.56D-06

 Cycle  20  Pass 1  IDiag  1:
 E= -504.825357768434     Delta-E=       -0.000000000102 Rises=F Damp=F
 DIIS: error= 7.44D-08 at cycle  10 NSaved=  10.
 NSaved=10 IEnMin=10 EnMin= -504.825357768434     IErMin=10 ErrMin= 7.44D-08
 ErrMax= 7.44D-08 EMaxC= 1.00D-01 BMatC= 8.64D-12 BMatP= 1.55D-10
 IDIUse=1 WtCom= 1.00D+00 WtEn= 0.00D+00
 Coeff-Com: -0.144D-02 0.329D-02 0.218D-01 0.792D-02-0.260D-01-0.577D-01
 Coeff-Com: -0.762D-01 0.633D-01 0.263D+00 0.801D+00
 Coeff:     -0.144D-02 0.329D-02 0.218D-01 0.792D-02-0.260D-01-0.577D-01
 Coeff:     -0.762D-01 0.633D-01 0.263D+00 0.801D+00
 Gap=     0.147 Goal=   None    Shift=    0.000
 Gap=     0.170 Goal=   None    Shift=    0.000
 RMSDP=1.03D-08 MaxDP=4.02D-07 DE=-1.02D-10 OVMax= 1.40D-06

 Cycle  21  Pass 1  IDiag  1:
 E= -504.825357768442     Delta-E=       -0.000000000008 Rises=F Damp=F
 DIIS: error= 2.74D-08 at cycle  11 NSaved=  11.
 NSaved=11 IEnMin=11 EnMin= -504.825357768442     IErMin=11 ErrMin= 2.74D-08
 ErrMax= 2.74D-08 EMaxC= 1.00D-01 BMatC= 1.13D-12 BMatP= 8.64D-12
 IDIUse=1 WtCom= 1.00D+00 WtEn= 0.00D+00
 Coeff-Com:  0.131D-03-0.796D-03-0.377D-02-0.115D-02 0.820D-02 0.105D-01
 Coeff-Com:  0.464D-02-0.454D-01-0.468D-01 0.201D+00 0.873D+00
 Coeff:      0.131D-03-0.796D-03-0.377D-02-0.115D-02 0.820D-02 0.105D-01
 Coeff:      0.464D-02-0.454D-01-0.468D-01 0.201D+00 0.873D+00
 Gap=     0.147 Goal=   None    Shift=    0.000
 Gap=     0.170 Goal=   None    Shift=    0.000
 RMSDP=3.24D-09 MaxDP=1.04D-07 DE=-8.19D-12 OVMax= 5.27D-07

 SCF Done:  E(UB3LYP) =  -504.825357768     A.U. after   21 cycles
             Convg  =    0.3244D-08             -V/T =  2.0043
 <Sx>= 0.0000 <Sy>= 0.0000 <Sz>= 0.5000 <S**2>= 0.7831 S= 0.5164
 <L.S>= 0.000000000000E+00
 KE= 5.026754019891D+02 PE=-2.539021828870D+03 EE= 8.504257869977D+02
 Annihilation of the first spin contaminant:
 S**2 before annihilation     0.7831,   after     0.7502
 Leave Link  502 at Sat Jun 27 19:20:09 2015, MaxMem= 3758096384 cpu:    1884.8
 (Enter /share/apps/g09/l801.exe)
 Range of M.O.s used for correlation:     1   312
 NBasis=   312 NAE=    45 NBE=    44 NFC=     0 NFV=     0
 NROrb=    312 NOA=    45 NOB=    44 NVA=   267 NVB=   268
 Leave Link  801 at Sat Jun 27 19:20:09 2015, MaxMem= 3758096384 cpu:       0.2
 (Enter /share/apps/g09/l1101.exe)
 Using compressed storage, NAtomX=    30.
 Will process  31 centers per pass.
 Leave Link 1101 at Sat Jun 27 19:20:10 2015, MaxMem= 3758096384 cpu:       6.8
 (Enter /share/apps/g09/l1102.exe)
 Symmetrizing basis deriv contribution to polar:
 IMax=3 JMax=2 DiffMx= 0.00D+00
 Leave Link 1102 at Sat Jun 27 19:20:10 2015, MaxMem= 3758096384 cpu:       0.5
 (Enter /share/apps/g09/l1110.exe)
 Forming Gx(P) for the SCF density, NAtomX=    30.
 Integral derivatives from FoFDir/FoFCou, PRISM(SPDF).
 Do as many integral derivatives as possible in FoFDir.
 G2DrvN: MDV=    3758096040.
 G2DrvN: will do    31 centers at a time, making    1 passes doing MaxLOS=2.
 Calling FoFCou, ICntrl=  3107 FMM=F I1Cent=   0 AccDes= 0.00D+00.
 FoFCou: FMM=F IPFlag=           0 FMFlag=      100000 FMFlg1=           0
         NFxFlg=           0 DoJE=F BraDBF=F KetDBF=F FulRan=T
         Omega=  0.000000  0.000000  1.000000  0.000000  0.000000 ICntrl=    3107 IOpCl=  1
         NMat0=    1 NMatS0=    1 NMatT0=    0 NMatD0=    1 NMtDS0=    0 NMtDT0=    0
         I1Cent=           0 NGrid=           0.
 Symmetry not used in FoFCou.
 FoFDir/FoFCou used for L=0 through L=2.
 End of G2Drv Frequency-dependent properties file   721 does not exist.
 End of G2Drv Frequency-dependent properties file   722 does not exist.
 Leave Link 1110 at Sat Jun 27 19:22:54 2015, MaxMem= 3758096384 cpu:    1970.9
 (Enter /share/apps/g09/l1002.exe)
 Minotr:  UHF open shell wavefunction.
          IDoAtm=111111111111111111111111111111
          Direct CPHF calculation.
          Differentiating once with respect to nuclear coordinates.
          Requested convergence is 1.0D-06 RMS, and 1.0D-05 maximum.
          Secondary convergence is 1.0D-12 RMS, and 1.0D-12 maximum.
          NewPWx=T KeepS1=F KeepF1=F KeepIn=T MapXYZ=F SortEE=F KeepMc=T.
          MDV=    3758096080 using IRadAn=       2.
 Generate precomputed XC quadrature information.
          Keep R1 and R2 ints in memory in canonical form, NReq=2738891857.
 Symmetry not used in FoFDir.
 MinBra= 0 MaxBra= 2 Meth= 1.
 IRaf=       0 NMat=   1 IRICut=       1 DoRegI=T DoRafI=F ISym2E= 0 JSym2E=0.
          Solving linear equations simultaneously, MaxMat=       0.
          There are    93 degrees of freedom in the 1st order CPHF.  IDoFFX=5.
     87 vectors produced by pass  0 Test12= 2.56D-10 1.08D-07 XBig12= 3.82D-01 4.69D-01.
 AX will form    87 AO Fock derivatives at one time.
     87 vectors produced by pass  1 Test12= 2.56D-10 1.08D-07 XBig12= 4.23D-02 3.67D-02.
     87 vectors produced by pass  2 Test12= 2.56D-10 1.08D-07 XBig12= 1.04D-04 1.56D-03.
     87 vectors produced by pass  3 Test12= 2.56D-10 1.08D-07 XBig12= 6.65D-07 1.04D-04.
     72 vectors produced by pass  4 Test12= 2.56D-10 1.08D-07 XBig12= 2.99D-09 5.58D-06.
     17 vectors produced by pass  5 Test12= 2.56D-10 1.08D-07 XBig12= 1.65D-11 3.24D-07.
 Inverted reduced A of dimension   437 with in-core refinement.
 End of Minotr Frequency-dependent properties file   721 does not exist.
 End of Minotr Frequency-dependent properties file   722 does not exist.
 Leave Link 1002 at Sat Jun 27 19:27:26 2015, MaxMem= 3758096384 cpu:    3254.8
 (Enter /share/apps/g09/l601.exe)
 Copying SCF densities to generalized density rwf, IOpCl= 1 IROHF=0.

 **********************************************************************

            Population analysis using the SCF density.

 **********************************************************************

 Orbital symmetries:
 Alpha Orbitals:
       Occupied  (A) (A) (A) (A) (A) (A) (A) (A) (A) (A) (A) (A)
                 (A) (A) (A) (A) (A) (A) (A) (A) (A) (A) (A) (A)
                 (A) (A) (A) (A) (A) (A) (A) (A) (A) (A) (A) (A)
                 (A) (A) (A) (A) (A) (A) (A) (A) (A)
       Virtual   (A) (A) (A) (A) (A) (A) (A) (A) (A) (A) (A) (A)
                 (A) (A) (A) (A) (A) (A) (A) (A) (A) (A) (A) (A)
                 (A) (A) (A) (A) (A) (A) (A) (A) (A) (A) (A) (A)
                 (A) (A) (A) (A) (A) (A) (A) (A) (A) (A) (A) (A)
                 (A) (A) (A) (A) (A) (A) (A) (A) (A) (A) (A) (A)
                 (A) (A) (A) (A) (A) (A) (A) (A) (A) (A) (A) (A)
                 (A) (A) (A) (A) (A) (A) (A) (A) (A) (A) (A) (A)
                 (A) (A) (A) (A) (A) (A) (A) (A) (A) (A) (A) (A)
                 (A) (A) (A) (A) (A) (A) (A) (A) (A) (A) (A) (A)
                 (A) (A) (A) (A) (A) (A) (A) (A) (A) (A) (A) (A)
                 (A) (A) (A) (A) (A) (A) (A) (A) (A) (A) (A) (A)
                 (A) (A) (A) (A) (A) (A) (A) (A) (A) (A) (A) (A)
                 (A) (A) (A) (A) (A) (A) (A) (A) (A) (A) (A) (A)
                 (A) (A) (A) (A) (A) (A) (A) (A) (A) (A) (A) (A)
                 (A) (A) (A) (A) (A) (A) (A) (A) (A) (A) (A) (A)
                 (A) (A) (A) (A) (A) (A) (A) (A) (A) (A) (A) (A)
                 (A) (A) (A) (A) (A) (A) (A) (A) (A) (A) (A) (A)
                 (A) (A) (A) (A) (A) (A) (A) (A) (A) (A) (A) (A)
                 (A) (A) (A) (A) (A) (A) (A) (A) (A) (A) (A) (A)
                 (A) (A) (A) (A) (A) (A) (A) (A) (A) (A) (A) (A)
                 (A) (A) (A) (A) (A) (A) (A) (A) (A) (A) (A) (A)
                 (A) (A) (A) (A) (A) (A) (A) (A) (A) (A) (A) (A)
                 (A) (A) (A)
 Beta  Orbitals:
       Occupied  (A) (A) (A) (A) (A) (A) (A) (A) (A) (A) (A) (A)
                 (A) (A) (A) (A) (A) (A) (A) (A) (A) (A) (A) (A)
                 (A) (A) (A) (A) (A) (A) (A) (A) (A) (A) (A) (A)
                 (A) (A) (A) (A) (A) (A) (A) (A)
       Virtual   (A) (A) (A) (A) (A) (A) (A) (A) (A) (A) (A) (A)
                 (A) (A) (A) (A) (A) (A) (A) (A) (A) (A) (A) (A)
                 (A) (A) (A) (A) (A) (A) (A) (A) (A) (A) (A) (A)
                 (A) (A) (A) (A) (A) (A) (A) (A) (A) (A) (A) (A)
                 (A) (A) (A) (A) (A) (A) (A) (A) (A) (A) (A) (A)
                 (A) (A) (A) (A) (A) (A) (A) (A) (A) (A) (A) (A)
                 (A) (A) (A) (A) (A) (A) (A) (A) (A) (A) (A) (A)
                 (A) (A) (A) (A) (A) (A) (A) (A) (A) (A) (A) (A)
                 (A) (A) (A) (A) (A) (A) (A) (A) (A) (A) (A) (A)
                 (A) (A) (A) (A) (A) (A) (A) (A) (A) (A) (A) (A)
                 (A) (A) (A) (A) (A) (A) (A) (A) (A) (A) (A) (A)
                 (A) (A) (A) (A) (A) (A) (A) (A) (A) (A) (A) (A)
                 (A) (A) (A) (A) (A) (A) (A) (A) (A) (A) (A) (A)
                 (A) (A) (A) (A) (A) (A) (A) (A) (A) (A) (A) (A)
                 (A) (A) (A) (A) (A) (A) (A) (A) (A) (A) (A) (A)
                 (A) (A) (A) (A) (A) (A) (A) (A) (A) (A) (A) (A)
                 (A) (A) (A) (A) (A) (A) (A) (A) (A) (A) (A) (A)
                 (A) (A) (A) (A) (A) (A) (A) (A) (A) (A) (A) (A)
                 (A) (A) (A) (A) (A) (A) (A) (A) (A) (A) (A) (A)
                 (A) (A) (A) (A) (A) (A) (A) (A) (A) (A) (A) (A)
                 (A) (A) (A) (A) (A) (A) (A) (A) (A) (A) (A) (A)
                 (A) (A) (A) (A) (A) (A) (A) (A) (A) (A) (A) (A)
                 (A) (A) (A) (A)
 The electronic state is 2-A.
 Alpha  occ. eigenvalues --  -19.15361 -19.12453 -10.21862 -10.20434 -10.18243
 Alpha  occ. eigenvalues --  -10.18016 -10.16876 -10.16753 -10.15943 -10.15692
 Alpha  occ. eigenvalues --  -10.15567  -1.03228  -0.92438  -0.81988  -0.79866
 Alpha  occ. eigenvalues --   -0.75254  -0.68944  -0.68694  -0.66879  -0.61586
 Alpha  occ. eigenvalues --   -0.56897  -0.54012  -0.49902  -0.48877  -0.45729
 Alpha  occ. eigenvalues --   -0.45155  -0.44415  -0.43949  -0.41735  -0.41111
 Alpha  occ. eigenvalues --   -0.40089  -0.39277  -0.38931  -0.38468  -0.37756
 Alpha  occ. eigenvalues --   -0.35793  -0.35027  -0.34644  -0.34202  -0.33652
 Alpha  occ. eigenvalues --   -0.33382  -0.31930  -0.29664  -0.25049  -0.18716
 Alpha virt. eigenvalues --   -0.04011   0.03488   0.04746   0.05284   0.05880
 Alpha virt. eigenvalues --    0.07247   0.08637   0.08894   0.08951   0.10691
 Alpha virt. eigenvalues --    0.11584   0.12022   0.12707   0.12819   0.13795
 Alpha virt. eigenvalues --    0.14070   0.14757   0.15858   0.16264   0.16654
 Alpha virt. eigenvalues --    0.17453   0.19223   0.19528   0.21806   0.22057
 Alpha virt. eigenvalues --    0.22889   0.24777   0.25450   0.28226   0.29286
 Alpha virt. eigenvalues --    0.30100   0.30392   0.32049   0.33498   0.33987
 Alpha virt. eigenvalues --    0.35762   0.36813   0.38599   0.40366   0.40933
 Alpha virt. eigenvalues --    0.42121   0.43530   0.45463   0.46245   0.47683
 Alpha virt. eigenvalues --    0.48433   0.51543   0.53292   0.54194   0.54600
 Alpha virt. eigenvalues --    0.55091   0.56107   0.56917   0.56965   0.57265
 Alpha virt. eigenvalues --    0.58132   0.58410   0.58976   0.59465   0.59642
 Alpha virt. eigenvalues --    0.60352   0.60579   0.60910   0.61176   0.61701
 Alpha virt. eigenvalues --    0.63040   0.63535   0.64628   0.65355   0.65955
 Alpha virt. eigenvalues --    0.67259   0.68764   0.69552   0.71021   0.72987
 Alpha virt. eigenvalues --    0.76061   0.83685   0.84225   0.84965   0.88132
 Alpha virt. eigenvalues --    0.89830   0.92303   0.93655   0.96153   0.97663
 Alpha virt. eigenvalues --    0.99286   0.99653   1.03480   1.05880   1.06878
 Alpha virt. eigenvalues --    1.11595   1.12769   1.14308   1.15201   1.17714
 Alpha virt. eigenvalues --    1.19718   1.23770   1.26085   1.28894   1.32110
 Alpha virt. eigenvalues --    1.33840   1.35346   1.36980   1.37405   1.39710
 Alpha virt. eigenvalues --    1.41094   1.42197   1.43879   1.44625   1.45432
 Alpha virt. eigenvalues --    1.46041   1.46282   1.47574   1.48600   1.49660
 Alpha virt. eigenvalues --    1.50337   1.51161   1.52498   1.53333   1.54889
 Alpha virt. eigenvalues --    1.55197   1.55954   1.56178   1.57002   1.58114
 Alpha virt. eigenvalues --    1.58613   1.60055   1.62188   1.63495   1.64127
 Alpha virt. eigenvalues --    1.65503   1.65833   1.67700   1.68810   1.71385
 Alpha virt. eigenvalues --    1.72899   1.74405   1.75631   1.76861   1.77477
 Alpha virt. eigenvalues --    1.78655   1.79171   1.79939   1.81155   1.82933
 Alpha virt. eigenvalues --    1.85438   1.86897   1.90744   1.91683   1.93462
 Alpha virt. eigenvalues --    1.95509   1.96209   1.98519   2.01576   2.02601
 Alpha virt. eigenvalues --    2.03410   2.06168   2.06359   2.08772   2.09639
 Alpha virt. eigenvalues --    2.10186   2.10677   2.11893   2.12593   2.16751
 Alpha virt. eigenvalues --    2.21989   2.23597   2.25148   2.25262   2.27853
 Alpha virt. eigenvalues --    2.31062   2.31444   2.34825   2.35707   2.37784
 Alpha virt. eigenvalues --    2.38175   2.40906   2.42242   2.43478   2.44257
 Alpha virt. eigenvalues --    2.45308   2.46877   2.48441   2.48523   2.49798
 Alpha virt. eigenvalues --    2.50338   2.51001   2.51933   2.52151   2.52594
 Alpha virt. eigenvalues --    2.53944   2.55710   2.57285   2.58855   2.60808
 Alpha virt. eigenvalues --    2.62378   2.62965   2.63919   2.65367   2.66045
 Alpha virt. eigenvalues --    2.67919   2.70379   2.72069   2.73713   2.76501
 Alpha virt. eigenvalues --    2.78118   2.79362   2.80769   2.83873   2.84319
 Alpha virt. eigenvalues --    2.86877   2.88002   2.88988   2.93579   2.94581
 Alpha virt. eigenvalues --    2.95799   2.97800   3.03449   3.05699   3.07931
 Alpha virt. eigenvalues --    3.09816   3.11253   3.16229   3.16530   3.21398
 Alpha virt. eigenvalues --    3.24942   3.27718   3.30585   3.45560   3.46706
 Alpha virt. eigenvalues --    3.48530   3.71332   3.76794   3.76920   3.78086
 Alpha virt. eigenvalues --    3.78703   3.78822   3.81524   3.81875   3.82024
 Alpha virt. eigenvalues --    3.82901   3.96618   3.97341   4.02071   4.11503
 Alpha virt. eigenvalues --    4.16525   4.26324   4.29409   4.33333   4.42107
 Alpha virt. eigenvalues --    4.82859   4.90721   5.01461   5.32855   5.40623
 Alpha virt. eigenvalues --    5.46756  23.75976  23.79147  23.83012  23.83711
 Alpha virt. eigenvalues --   23.89123  23.92936  23.93522  23.94703  23.97908
 Alpha virt. eigenvalues --   49.81733  49.89764
  Beta  occ. eigenvalues --  -19.15406 -19.11404 -10.21759 -10.19351 -10.18298
  Beta  occ. eigenvalues --  -10.18078 -10.16881 -10.16659 -10.15942 -10.15665
  Beta  occ. eigenvalues --  -10.15566  -1.02537  -0.90839  -0.81257  -0.79805
  Beta  occ. eigenvalues --   -0.74795  -0.68763  -0.68664  -0.66085  -0.61284
  Beta  occ. eigenvalues --   -0.56350  -0.53557  -0.49364  -0.48415  -0.45433
  Beta  occ. eigenvalues --   -0.44945  -0.44169  -0.43576  -0.41304  -0.40733
  Beta  occ. eigenvalues --   -0.39954  -0.39068  -0.38686  -0.38324  -0.36955
  Beta  occ. eigenvalues --   -0.35481  -0.34614  -0.34094  -0.33948  -0.33511
  Beta  occ. eigenvalues --   -0.33308  -0.31363  -0.28975  -0.24564
  Beta virt. eigenvalues --   -0.07528  -0.00098   0.03561   0.04818   0.05380
  Beta virt. eigenvalues --    0.06252   0.07288   0.08726   0.09058   0.09120
  Beta virt. eigenvalues --    0.10761   0.11658   0.12098   0.12799   0.12898
  Beta virt. eigenvalues --    0.13955   0.14209   0.14864   0.15946   0.16493
  Beta virt. eigenvalues --    0.16715   0.17578   0.19324   0.19627   0.22045
  Beta virt. eigenvalues --    0.22193   0.23164   0.24876   0.25847   0.28463
  Beta virt. eigenvalues --    0.29386   0.30388   0.30613   0.32130   0.33665
  Beta virt. eigenvalues --    0.34115   0.35927   0.37249   0.38696   0.40572
  Beta virt. eigenvalues --    0.41083   0.42336   0.43677   0.45734   0.46416
  Beta virt. eigenvalues --    0.48596   0.48839   0.51719   0.53410   0.54601
  Beta virt. eigenvalues --    0.54988   0.55138   0.56215   0.57066   0.57203
  Beta virt. eigenvalues --    0.57478   0.58267   0.58730   0.59153   0.59609
  Beta virt. eigenvalues --    0.59780   0.60550   0.60634   0.61076   0.61291
  Beta virt. eigenvalues --    0.61840   0.63166   0.63745   0.64793   0.65524
  Beta virt. eigenvalues --    0.66297   0.67574   0.68895   0.69706   0.71393
  Beta virt. eigenvalues --    0.73193   0.76372   0.84150   0.84801   0.85445
  Beta virt. eigenvalues --    0.88898   0.90413   0.93116   0.93981   0.96501
  Beta virt. eigenvalues --    0.98255   0.99444   1.00144   1.03775   1.06464
  Beta virt. eigenvalues --    1.07058   1.11823   1.12985   1.14409   1.15312
  Beta virt. eigenvalues --    1.17837   1.20042   1.24017   1.26606   1.29466
  Beta virt. eigenvalues --    1.32391   1.34040   1.35936   1.37074   1.37704
  Beta virt. eigenvalues --    1.39883   1.41664   1.42350   1.44102   1.44726
  Beta virt. eigenvalues --    1.45583   1.46096   1.46334   1.47668   1.48901
  Beta virt. eigenvalues --    1.49867   1.50398   1.51194   1.52628   1.53439
  Beta virt. eigenvalues --    1.55091   1.55552   1.56093   1.56279   1.57274
  Beta virt. eigenvalues --    1.58269   1.58842   1.60361   1.62307   1.63796
  Beta virt. eigenvalues --    1.64385   1.65652   1.66114   1.67793   1.69267
  Beta virt. eigenvalues --    1.71927   1.73078   1.74630   1.75880   1.77077
  Beta virt. eigenvalues --    1.77586   1.78754   1.79432   1.80223   1.81313
  Beta virt. eigenvalues --    1.83059   1.86247   1.87067   1.90926   1.91847
  Beta virt. eigenvalues --    1.94046   1.95645   1.96452   1.98718   2.01782
  Beta virt. eigenvalues --    2.03094   2.03635   2.06439   2.07036   2.08917
  Beta virt. eigenvalues --    2.09848   2.10319   2.10760   2.12200   2.12877
  Beta virt. eigenvalues --    2.16983   2.22181   2.23787   2.25275   2.25387
  Beta virt. eigenvalues --    2.28222   2.31198   2.31525   2.34946   2.35769
  Beta virt. eigenvalues --    2.37929   2.38342   2.41007   2.42401   2.43566
  Beta virt. eigenvalues --    2.44329   2.45488   2.47036   2.48506   2.48586
  Beta virt. eigenvalues --    2.49917   2.50399   2.51094   2.52055   2.52220
  Beta virt. eigenvalues --    2.52659   2.54063   2.55767   2.57508   2.58964
  Beta virt. eigenvalues --    2.60982   2.62484   2.63258   2.64082   2.65518
  Beta virt. eigenvalues --    2.66255   2.68113   2.70541   2.72210   2.74041
  Beta virt. eigenvalues --    2.76581   2.78447   2.79514   2.81081   2.84094
  Beta virt. eigenvalues --    2.84697   2.87678   2.88096   2.89648   2.94459
  Beta virt. eigenvalues --    2.95255   2.95951   2.98631   3.03739   3.06753
  Beta virt. eigenvalues --    3.08095   3.10258   3.12857   3.16741   3.16881
  Beta virt. eigenvalues --    3.22139   3.25496   3.28089   3.30926   3.45724
  Beta virt. eigenvalues --    3.47378   3.49492   3.71425   3.76842   3.76946
  Beta virt. eigenvalues --    3.78262   3.78743   3.79600   3.81594   3.81909
  Beta virt. eigenvalues --    3.82082   3.82962   3.97160   3.97690   4.02165
  Beta virt. eigenvalues --    4.11861   4.16747   4.26636   4.29426   4.33760
  Beta virt. eigenvalues --    4.42487   4.84913   4.93591   5.01475   5.31719
  Beta virt. eigenvalues --    5.40895   5.47573  23.76183  23.79223  23.83115
  Beta virt. eigenvalues --   23.84403  23.89171  23.93073  23.93542  23.94798
  Beta virt. eigenvalues --   23.97906  49.82786  49.89769
          Condensed to atoms (all electrons):
              1          2          3          4          5          6
     1  C    4.900355   0.399565   0.399813   0.334414  -0.064087   0.009366
     2  H    0.399565   0.601331  -0.031051  -0.037155  -0.006154  -0.000138
     3  H    0.399813  -0.031051   0.579945  -0.027842  -0.004638  -0.000229
     4  C    0.334414  -0.037155  -0.027842   5.147609   0.340619  -0.037994
     5  C   -0.064087  -0.006154  -0.004638   0.340619   4.912198   0.399733
     6  H    0.009366  -0.000138  -0.000229  -0.037994   0.399733   0.575204
     7  H   -0.005205  -0.000488   0.003889  -0.031036   0.404767  -0.027569
     8  C   -0.056241  -0.007454   0.007160   0.320693  -0.055018  -0.011227
     9  H   -0.001089  -0.000220  -0.000300  -0.062367   0.008958   0.001002
    10  C   -0.005552   0.002850  -0.000252  -0.045966  -0.014792  -0.001016
    11  H   -0.001379   0.002822  -0.000273  -0.006409   0.001143   0.000349
    12  H   -0.000179  -0.000316   0.000039   0.005372   0.000232  -0.000125
    13  C    0.000824   0.000018  -0.000015  -0.000605   0.000394   0.003349
    14  C   -0.000010   0.000000   0.000000  -0.000114   0.000072  -0.000058
    15  H   -0.000008  -0.000003   0.000001   0.000190  -0.000032  -0.000044
    16  H    0.402732  -0.031326  -0.027444  -0.036822   0.008685  -0.000421
    17  H   -0.005919   0.005054  -0.000650  -0.037939   0.399051  -0.031948
    18  O    0.003456  -0.000061  -0.000190  -0.048709  -0.001566   0.013136
    19  O    0.000248  -0.000025  -0.000029  -0.000919  -0.001773   0.001940
    20  H   -0.000019   0.000002   0.000005   0.002966   0.000259   0.000253
    21  H   -0.035425   0.007943  -0.006994   0.415379  -0.044787  -0.004263
    22  C    0.000001   0.000000   0.000000  -0.000025  -0.000009   0.000078
    23  H    0.000000   0.000000   0.000000   0.000002  -0.000010   0.000019
    24  H    0.000000   0.000000   0.000000   0.000000   0.000000   0.000002
    25  H   -0.000004   0.000001   0.000000  -0.000014   0.000032  -0.000093
    26  C   -0.000001   0.000000   0.000000   0.000025  -0.000002   0.000000
    27  H    0.000000  -0.000002   0.000000   0.000006  -0.000001  -0.000001
    28  H    0.000000   0.000000   0.000000  -0.000001   0.000000   0.000000
    29  H    0.000000   0.000000   0.000000   0.000002  -0.000004  -0.000005
    30  H   -0.000026  -0.000022   0.000005   0.001088   0.000552  -0.000987
              7          8          9         10         11         12
     1  C   -0.005205  -0.056241  -0.001089  -0.005552  -0.001379  -0.000179
     2  H   -0.000488  -0.007454  -0.000220   0.002850   0.002822  -0.000316
     3  H    0.003889   0.007160  -0.000300  -0.000252  -0.000273   0.000039
     4  C   -0.031036   0.320693  -0.062367  -0.045966  -0.006409   0.005372
     5  C    0.404767  -0.055018   0.008958  -0.014792   0.001143   0.000232
     6  H   -0.027569  -0.011227   0.001002  -0.001016   0.000349  -0.000125
     7  H    0.580351   0.008163  -0.000343  -0.000380  -0.000267   0.000026
     8  C    0.008163   5.006349   0.414113   0.336330  -0.044045  -0.032724
     9  H   -0.000343   0.414113   0.585868  -0.043396   0.005620  -0.011679
    10  C   -0.000380   0.336330  -0.043396   4.951678   0.403862   0.409424
    11  H   -0.000267  -0.044045   0.005620   0.403862   0.573606  -0.030123
    12  H    0.000026  -0.032724  -0.011679   0.409424  -0.030123   0.569177
    13  C    0.000142  -0.112787   0.012294   0.331817  -0.031561  -0.037078
    14  C   -0.000001   0.002674   0.000050  -0.056885   0.004827  -0.006170
    15  H    0.000001   0.000047  -0.001206  -0.002076  -0.000071   0.003483
    16  H   -0.000084  -0.003814   0.005700  -0.000766   0.000319  -0.000018
    17  H   -0.031342  -0.005377  -0.000367   0.003956   0.000781   0.000008
    18  O   -0.000124   0.178011  -0.032120  -0.047717   0.004637   0.003067
    19  O   -0.000100  -0.040883   0.005358   0.004824  -0.000032   0.000044
    20  H   -0.000004  -0.002296  -0.000776  -0.000591   0.000009  -0.000017
    21  H   -0.007998  -0.051955  -0.010126   0.009784   0.000145  -0.000398
    22  C    0.000000  -0.000234   0.000093   0.005999  -0.000347   0.000093
    23  H    0.000000  -0.000102   0.000000   0.000195   0.000021   0.000022
    24  H    0.000000  -0.000011   0.000002  -0.000399   0.000024  -0.000008
    25  H    0.000001   0.000495   0.000087  -0.000291  -0.000057   0.000005
    26  C    0.000000   0.000007   0.000010  -0.002133  -0.000009   0.001129
    27  H    0.000000   0.000047  -0.000005   0.002404  -0.000429   0.001306
    28  H    0.000000   0.000024  -0.000002  -0.000233  -0.000003  -0.000378
    29  H    0.000000  -0.000009  -0.000004  -0.000136   0.000027  -0.000010
    30  H   -0.000004   0.003375  -0.001093  -0.028300  -0.008925   0.006092
             13         14         15         16         17         18
     1  C    0.000824  -0.000010  -0.000008   0.402732  -0.005919   0.003456
     2  H    0.000018   0.000000  -0.000003  -0.031326   0.005054  -0.000061
     3  H   -0.000015   0.000000   0.000001  -0.027444  -0.000650  -0.000190
     4  C   -0.000605  -0.000114   0.000190  -0.036822  -0.037939  -0.048709
     5  C    0.000394   0.000072  -0.000032   0.008685   0.399051  -0.001566
     6  H    0.003349  -0.000058  -0.000044  -0.000421  -0.031948   0.013136
     7  H    0.000142  -0.000001   0.000001  -0.000084  -0.031342  -0.000124
     8  C   -0.112787   0.002674   0.000047  -0.003814  -0.005377   0.178011
     9  H    0.012294   0.000050  -0.001206   0.005700  -0.000367  -0.032120
    10  C    0.331817  -0.056885  -0.002076  -0.000766   0.003956  -0.047717
    11  H   -0.031561   0.004827  -0.000071   0.000319   0.000781   0.004637
    12  H   -0.037078  -0.006170   0.003483  -0.000018   0.000008   0.003067
    13  C    5.327167   0.335506  -0.052722   0.000018  -0.002325   0.033369
    14  C    0.335506   4.987849   0.417874   0.000000   0.000033  -0.003978
    15  H   -0.052722   0.417874   0.592662  -0.000004   0.000001   0.003705
    16  H    0.000018   0.000000  -0.000004   0.582447  -0.000139   0.000065
    17  H   -0.002325   0.000033   0.000001  -0.000139   0.606070  -0.000176
    18  O    0.033369  -0.003978   0.003705   0.000065  -0.000176   8.224881
    19  O    0.010322  -0.000429  -0.000208  -0.000066  -0.000107   0.019566
[...]
 .00000783,-0.00104057,-0.00005667,0.00066457,-0.00024964,-0.00018035,-
 0.00011141,0.00008519,0.00000354,-0.00001397,-0.00186726,-0.00315437,-
 0.00407402,-0.02332253,-0.00775958,0.01220136,0.00049709,0.00098436,-0
 .00000221,0.00000448,0.00000513,-0.00000214,0.00001101,0.00000624,-0.0
 0000973,0.00142433,-0.00117084,0.00077498,-0.00071375,0.00139960,-0.00
 038769,-0.00014828,-0.00000408,-0.00006807,-0.00001526,0.00001109,0.00
 001967,-0.05008891,-0.05990182,0.02328536,-0.00522134,-0.00232756,0.00
 239618,0.05822484,0.06381717,-0.00001047,-0.00000441,0.00002477,0.0000
 0409,0.00000384,-0.00000162,-0.00000855,-0.00000047,-0.00000365,-0.000
 00512,0.00002192,-0.00003810,-0.00001542,-0.00002557,-0.00001300,-0.00
 000675,0.00002395,-0.00000045,0.00000859,0.00000309,0.00000898,0.00002
 817,-0.00010571,0.00003328,-0.00002414,0.00001227,-0.00000053,-0.00081
 105,-0.00004397,0.00041255,-0.00013211,-0.00011540,-0.00007106,0.00010
 576,0.00001289,0.00007699,-0.00059423,-0.00174382,-0.00138836,-0.01476
 566,-0.00496192,0.00591649,-0.00005980,0.00071074,0.00067426,0.0000033
 9,0.00000421,0.00000459,-0.00000156,-0.00001080,-0.00000356,0.00046486
 ,-0.00065693,0.00024167,-0.00027279,0.00050471,-0.00014831,-0.00003617
 ,0.00000457,-0.00004285,-0.00000183,0.00000237,0.00001096,0.09338123,0
 .02430268,-0.08875605,0.02867637,0.00650196,-0.01208712,-0.10164038,-0
 .02365358,0.09356906,0.00003934,-0.00001122,-0.00005874,-0.00000410,0.
 00000572,0.00000150,0.00002760,0.00001791,0.00000308,0.00004178,0.0000
 8248,0.00009101,0.00001831,-0.00000035,0.00000029,-0.00000977,-0.00000
 294,0.00002944,0.00002159,0.00000557,-0.00001113,-0.00012667,-0.000494
 29,-0.00020258,0.00004726,0.00004046,0.00004797,0.00012214,-0.00003725
 ,-0.00009834,0.00003953,0.00003926,0.00000101,0.00001341,0.00001482,0.
 00001300,0.00075957,-0.00047816,0.00003916,0.00764477,-0.01107156,0.00
 228735,0.00042061,0.00054349,0.00033012,-0.00000721,-0.00000540,0.0000
 0510,-0.00000546,0.00000398,0.00000116,-0.00015289,-0.00077402,0.00034
 065,-0.00000563,0.00058750,-0.00012658,-0.00018391,0.00013193,0.000060
 32,-0.00003472,-0.00002062,-0.00001175,-0.14900045,0.13040211,-0.01705
 331,-0.00218014,0.00116597,-0.00012296,-0.01638007,0.02181528,-0.00397
 612,0.15914142,0.00007222,-0.00002959,-0.00006276,-0.00000679,0.000013
 25,-0.00000259,0.00003211,0.00002582,0.00000723,0.00005403,0.00019514,
 0.00009964,0.00000963,-0.00004198,-0.00000301,-0.00001433,0.00000653,0
 .00002776,0.00001823,0.00001329,-0.00000986,0.00022372,-0.00055582,-0.
 00011836,0.00003297,0.00008438,0.00006160,-0.00004514,-0.00007961,-0.0
 0010707,0.00007539,0.00003139,-0.00000778,0.00005416,0.00000322,0.0000
 6879,0.00150070,0.00042571,-0.00021057,0.01458086,-0.02047384,0.003614
 23,0.00010726,0.00088697,-0.00018211,-0.00000655,-0.00000380,0.0000051
 8,-0.00000065,0.00002060,-0.00000106,0.00133727,-0.00026085,0.00086298
 ,-0.00056565,0.00109198,-0.00038123,-0.00011406,0.00010921,-0.00002469
 ,-0.00001457,-0.00000167,0.00000232,0.12703179,-0.20900197,0.02265804,
 0.00251989,-0.00396073,0.00072107,-0.00505311,0.00726836,-0.00152838,-
 0.13909000,0.22892510,0.00001567,0.00000080,-0.00002813,-0.00000081,0.
 00000070,0.00000111,0.00001011,0.00000640,0.00000384,0.00001821,0.0000
 4454,0.00003816,0.00003529,0.00003529,0.00002042,0.00000025,-0.0000126
 6,0.00000046,-0.00000637,-0.00000579,-0.00001216,0.00003339,-0.0001469
 8,-0.00015427,-0.00004846,-0.00003235,-0.00002251,0.00001326,0.0000127
 6,-0.00006993,0.00004832,0.00001856,-0.00001019,0.00000963,-0.00003305
 ,-0.00002390,0.00036690,0.00057058,0.00024041,0.00971070,-0.01217008,0
 .00092179,0.00068510,0.00025067,0.00031699,-0.00000587,-0.00000439,-0.
 00000607,-0.00000425,-0.00000693,-0.00000466,0.00056888,-0.00058739,0.
 00013562,-0.00010649,0.00059894,-0.00030918,0.00011094,-0.00002469,0.0
 0011311,-0.00000501,0.00000221,0.00000247,-0.01759613,0.02417812,-0.05
 135401,-0.01990968,0.02502504,-0.00232747,0.00798152,-0.01154315,0.000
 88952,0.01968700,-0.02262592,0.05213180,-0.00005271,0.00000520,0.00006
 924,-0.00000781,-0.00003879,0.00000297,-0.00002939,-0.00003276,-0.0000
 0684,0.00000284,-0.00026746,-0.00007325,-0.00000114,0.00001361,-0.0000
 2061,0.00000632,0.00002593,-0.00006766,-0.00001701,-0.00001470,0.00001
 893,0.00108757,0.00072699,0.00032329,-0.00017872,0.00002716,-0.0001258
 2,-0.00002965,-0.00131936,0.00052733,-0.00001922,-0.00006367,-0.000324
 82,0.00004025,-0.00040489,-0.00040738,-0.03137523,0.02143364,0.0025126
 7,-0.10114514,0.04917229,-0.00838200,-0.00401286,0.00603397,-0.0005127
 4,0.00000815,0.00001613,-0.00000144,-0.00000136,-0.00004399,0.00001855
 ,0.00261377,-0.00561326,0.00248799,-0.00210020,0.00407185,-0.00139523,
 -0.00013947,-0.00013828,-0.00017859,0.00016987,0.00003926,-0.00003385,
 0.00854672,-0.00754392,0.00071105,0.00010227,-0.00041492,0.00003657,0.
 00055685,-0.00095516,-0.00014913,-0.00098697,-0.00355678,-0.00162847,0
 .50879648,-0.00007467,0.00003388,0.00012255,0.00001077,-0.00005341,0.0
 0000334,-0.00006601,-0.00004566,-0.00000817,-0.00000701,-0.00019527,-0
 .00012430,-0.00005445,0.00004158,-0.00000209,0.00002728,0.00000822,-0.
 00012051,-0.00005338,-0.00002150,0.00003261,0.00150876,0.00079159,0.00
 052127,-0.00022074,0.00000936,-0.00015434,-0.00066485,-0.00114449,0.00
 074751,-0.00038966,-0.00034619,-0.00013058,-0.00004167,0.00006122,-0.0
 0043245,0.00770098,0.00735994,-0.00527711,0.02960646,-0.12233056,0.008
 55959,0.00684706,-0.00919379,0.00113357,0.00001548,0.00002377,-0.00000
 874,0.00001913,-0.00005282,0.00001026,0.00208909,-0.00482970,0.0019388
 4,-0.00285317,0.00475382,-0.00142652,-0.00014073,-0.00020655,-0.000272
 77,0.00015841,0.00005321,-0.00001442,0.01779332,-0.03112154,-0.0005367
 0,0.00047521,0.00210374,0.00104523,0.00111506,0.00139510,0.00077531,-0
 .00214372,-0.00380920,-0.00255966,0.06470544,0.48580530,0.00002977,0.0
 0001204,-0.00007382,-0.00000547,0.00001566,0.00001190,0.00004001,0.000
 01499,0.00000255,0.00001527,0.00003632,0.00012417,-0.00000167,-0.00002
 325,0.00000508,-0.00000787,-0.00004165,0.00005569,0.00002106,0.0000124
 8,-0.00002191,-0.00051550,-0.00010280,-0.00035389,0.00020425,-0.000038
 72,0.00012646,0.00045725,0.00017712,-0.00032608,-0.00008118,0.00013048
 ,0.00026058,-0.00027636,0.00031285,0.00002292,0.00878591,-0.00980005,0
 .00049246,-0.00375775,0.00369122,-0.07630948,-0.02061987,0.02541699,-0
 .00145189,-0.00001346,-0.00001010,-0.00000362,0.00000583,0.00005493,0.
 00000660,-0.00229130,0.00377604,-0.00095887,0.00184847,-0.00314932,0.0
 0098085,-0.00000509,0.00008987,0.00016549,-0.00007351,-0.00003068,-0.0
 0001390,0.00922364,-0.01475660,0.00077457,0.00082072,-0.00079127,0.000
 50421,0.00025935,0.00108924,0.00030283,-0.00090389,-0.00297718,-0.0011
 9578,-0.00305633,0.00951275,0.56016150,0.00000562,0.00000315,-0.000025
 90,-0.00000869,-0.00000116,0.00000255,0.00001814,0.00000321,-0.0000016
 6,-0.00000113,-0.00006119,0.00003843,0.00001290,0.00001306,0.00000372,
 -0.00000432,-0.00000650,0.00001326,0.00001271,-0.00000257,-0.00001166,
 -0.00019573,0.00009079,-0.00015966,0.00003934,-0.00002193,0.00001589,0
 .00000849,0.00012336,0.00025309,-0.00004673,0.00002734,-0.00001844,-0.
 00008087,0.00001370,-0.00026643,0.00117338,0.00034446,0.00080516,0.008
 06751,0.01579453,0.01140665,0.00081842,-0.00087821,-0.00010084,-0.0000
 0487,-0.00000477,0.00000401,-0.00000587,-0.00000084,0.00000564,-0.0005
 0802,0.00089733,-0.00037986,0.00040020,-0.00079887,0.00021518,0.000033
 37,0.00002425,0.00004038,0.00001108,-0.00000860,-0.00001257,-0.0028528
 5,0.00275979,-0.00046741,-0.00013521,-0.00006961,0.00004224,0.00023800
 ,0.00025656,-0.00018818,0.00068842,0.00115042,0.00040324,-0.08617313,-
 0.07978913,-0.04832013,0.09162056,0.00001573,-0.00001938,0.00000281,0.
 00000386,0.00001540,-0.00000851,-0.00000685,0.00000755,0.00000509,0.00
 001151,0.00011169,-0.00001039,-0.00001022,-0.00003076,-0.00000828,0.00
 000033,0.00001727,0.00001087,0.00000010,0.00000655,0.00000942,0.000102
 48,-0.00024152,0.00018490,0.00001335,0.00001127,0.00001730,0.00027031,
 0.00008911,-0.00051151,0.00014818,0.00006648,0.00003763,0.00028151,-0.
 00001752,0.00041451,-0.00179113,0.00039955,0.00012848,-0.00965805,-0.0
 1841631,-0.01203605,-0.00041465,0.00066050,0.00053840,0.00000688,-0.00
 000161,0.00000489,-0.00000043,0.00000783,-0.00000932,0.00034905,-0.000
 30350,0.00025653,-0.00006480,0.00044086,-0.00008856,-0.00008973,-0.000
 00119,-0.00001013,-0.00003784,0.00000082,0.00001601,0.00473717,-0.0034
 4780,0.00135604,0.00002033,0.00020589,-0.00011193,0.00009421,0.0004511
 6,0.00017892,-0.00065156,-0.00130543,-0.00100352,-0.07952771,-0.208413
 47,-0.09751240,0.08524975,0.22811864,0.00001108,-0.00002154,0.00000404
 ,-0.00000035,0.00001124,-0.00000046,-0.00000147,0.00000469,0.00000029,
 -0.00000224,0.00003715,-0.00000631,0.00000677,-0.00003453,0.00000266,-
 0.00000062,0.00000993,0.00000342,-0.00000134,0.00000656,0.00000004,0.0
 0010859,-0.00009623,0.00002810,-0.00002029,0.00001871,-0.00000383,0.00
 000739,0.00014875,0.00019453,0.00020777,-0.00000449,-0.00007649,0.0000
 4620,-0.00006517,0.00006112,-0.00055095,-0.00031992,-0.00010104,0.0023
 2523,0.00302273,0.00031860,0.00052849,-0.00000772,0.00046755,-0.000001
 71,0.00000349,-0.00000318,-0.00000081,0.00001094,-0.00000537,0.0002134
 4,-0.00015763,0.00003432,-0.00006290,0.00020346,-0.00002952,-0.0000258
 2,0.00000416,-0.00000832,-0.00000977,0.00000061,0.00000265,-0.00001357
 ,0.00024339,0.00057457,0.00001463,0.00036673,0.00045399,-0.00024602,-0
 .00013472,-0.00006232,-0.00019822,0.00001893,0.00046292,-0.04792485,-0
 .09766888,-0.10658326,0.05291255,0.10767673,0.11134377,-0.00003016,0.0
 0000238,0.00007253,0.00001107,-0.00001384,-0.00000406,-0.00004586,-0.0
 0001853,0.00000058,0.00000153,-0.00003590,-0.00008261,-0.00002629,0.00
 000108,0.00000338,0.00001636,0.00000627,-0.00006270,-0.00004000,-0.000
 00640,0.00002122,0.00068021,0.00010335,0.00024401,-0.00014229,0.000049
 61,-0.00007677,-0.00012467,-0.00026206,0.00021953,-0.00000441,-0.00013
 251,-0.00008920,0.00013564,-0.00017325,-0.00007442,-0.00237209,0.00520
 837,-0.00141269,-0.01849658,-0.00386685,0.00845767,0.00039193,-0.00038
 396,-0.00047173,0.00001196,0.00001241,-0.00000940,0.00001298,-0.000014
 84,-0.00000242,0.00205629,-0.00339584,0.00139830,-0.00159826,0.0028005
 3,-0.00089292,-0.00005008,-0.00011426,-0.00014512,0.00005699,0.0000317
 7,0.00000804,0.00082870,-0.00142645,-0.00017501,0.00003233,0.00007132,
 -0.00004443,0.00072461,0.00080928,0.00015749,0.00020021,-0.00005926,-0
 .00037790,-0.24451062,-0.05367050,0.09599409,-0.01035153,-0.00268125,0
 .00479737,0.26688106,0.00002981,-0.00001595,-0.00003892,-0.00000074,0.
 00002051,0.00000068,0.00001908,0.00001695,0.00000324,-0.00000052,0.000
 10227,0.00004682,0.00001621,-0.00002787,0.00000115,-0.00000772,-0.0000
 0522,0.00003864,0.00001361,0.00001149,-0.00001046,-0.00032622,-0.00031
 305,-0.00011189,0.00008070,-0.00000428,0.00005543,0.00019610,0.0004082
 9,-0.00022482,0.00017271,0.00007951,0.00009061,0.00004831,0.00002699,0
 .00022641,0.00150227,-0.00381820,0.00074256,0.02513484,0.00319601,-0.0
 1182544,-0.00089060,0.00114730,0.00008224,-0.00000595,-0.00000554,-0.0
 0000086,-0.00000193,0.00002659,-0.00000594,-0.00074048,0.00175531,-0.0
 0072277,0.00087978,-0.00149465,0.00049602,0.00003906,0.00007822,0.0000
 8585,-0.00006142,-0.00002020,0.00000603,0.00055143,0.00170851,-0.00024
 428,-0.00007899,-0.00011748,-0.00001087,-0.00039099,-0.00037359,0.0000
 6448,-0.00009293,0.00035807,0.00029380,-0.05372219,-0.05891918,0.02502
 376,-0.02188804,-0.00576241,0.01185920,0.05605090,0.06441105,0.0000012
 5,-0.00000448,-0.00000238,-0.00000113,0.00000258,-0.00000130,0.0000047
 0,0.00000274,-0.00000203,0.00000337,0.00000035,0.00000198,0.00000005,0
 .00000934,-0.00000007,-0.00000189,0.00000479,0.00000647,0.00000801,-0.
 00000056,-0.00000093,0.00004296,0.00006196,0.00009131,0.00001528,-0.00
 001085,0.00000690,0.00011732,0.00002403,-0.00000319,-0.00000665,0.0000
 1868,-0.00004847,0.00009288,-0.00004881,0.00008507,0.00056127,-0.00027
 084,0.00077555,-0.00352537,0.00016448,0.00066412,-0.00015454,-0.000523
 51,0.00039808,-0.00000191,-0.00000090,0.00000218,-0.00000621,-0.000007
 55,-0.00000305,-0.00063149,0.00063231,-0.00022598,0.00027552,-0.000452
 36,0.00014588,0.00001219,0.00002238,0.00001679,-0.00000720,-0.00000592
 ,0.00000249,0.00034888,0.00013219,-0.00027973,0.00011178,0.00003246,-0
 .00002528,-0.00006458,-0.00044062,0.00019908,-0.00023900,-0.00005797,0
 .00000290,0.09569491,0.02486292,-0.09313760,-0.01468780,-0.00315580,0.
 00684479,-0.10526717,-0.02816230,0.09657721,-0.00000291,0.00000264,0.0
 0000192,0.00000233,0.00000283,-0.00000295,-0.00000057,0.00000103,-0.00
 000049,0.00001311,0.00001607,-0.00000324,-0.00001624,0.00001392,-0.000
 00360,-0.00000377,0.00001192,0.00000936,0.00000932,-0.00000353,0.00000
 667,-0.00009337,0.00001576,-0.00002189,0.00004647,-0.00001090,0.000023
 85,-0.00004047,0.00014391,-0.00002810,-0.00011022,0.00001534,0.0000183
 5,0.00013346,0.00008097,0.00015717,0.00166771,-0.00050125,-0.00193493,
 -0.00494908,0.00532589,-0.02002350,-0.00218202,0.00343178,0.00003147,0
 .00000311,-0.00000098,0.00000630,-0.00000710,-0.00001558,-0.00000393,-
 0.00098273,0.00105834,-0.00020364,0.00046353,-0.00082673,0.00027700,0.
 00001460,0.00002117,0.00002509,-0.00002134,-0.00000527,0.00001092,0.00
 041705,-0.00132781,0.00005060,0.00038310,0.00014361,0.00046199,0.00004
 409,0.00005810,0.00017538,-0.00012777,-0.00018723,0.00007932,-0.052689
 51,0.00882446,-0.03766664,-0.00268197,0.00347515,-0.01215449,0.0056807
 2,-0.00655033,0.02764934,0.05529208,0.00000329,0.00000245,-0.00000596,
 -0.00000066,-0.00000230,-0.00000201,0.00000337,0.00000154,0.00000035,-
 0.00000848,0.00002553,-0.00001033,0.00001277,0.00001390,-0.00000452,-0
 .00000186,-0.00000357,0.00000461,0.00000312,-0.00000182,-0.00000295,-0
 .00015711,-0.00010990,0.00005512,-0.00002408,0.00000389,-0.00000998,-0
 .00003836,0.00007029,-0.00026325,0.00002758,-0.00000005,-0.00001729,-0
 .00002315,-0.00006605,0.00004183,-0.00166523,0.00047786,0.00044802,0.0
 0439883,-0.00766231,0.02514786,0.00359479,-0.00370843,-0.00010047,-0.0
 0000124,-0.00000303,0.00000002,-0.00000107,-0.00000442,0.00000234,0.00
 048361,-0.00036084,-0.00001779,-0.00015012,0.00025905,-0.00011213,0.00
 001000,-0.00000067,0.00000140,-0.00000355,-0.00000070,0.00000424,-0.00
 022139,0.00167307,0.00157460,-0.00005364,-0.00025728,-0.00094301,-0.00
 003482,-0.00012002,-0.00000769,-0.00002519,0.00030246,-0.00034890,0.00
 861815,-0.06174826,0.05929369,-0.00327263,0.00739929,-0.02502916,0.001
 39674,-0.00266369,0.00714401,-0.01335023,0.06639650,-0.00001173,0.0000
 0464,0.00001845,0.00000699,-0.00000053,-0.00000621,-0.00001636,-0.0000
 0294,0.00000233,0.00001102,0.00000419,-0.00001924,-0.00002463,0.000016
 29,0.00000455,0.00000759,0.00000444,-0.00001447,-0.00001134,-0.0000034
 0,0.00001078,0.00014586,0.00003722,0.00006537,0.00000102,-0.00000662,0
 .00000761,-0.00000904,-0.00008244,-0.00014228,-0.00009319,-0.00001242,
 -0.00000287,0.00008332,0.00005511,0.00010162,0.00077883,-0.00015453,0.
 00068874,-0.00123237,0.00106074,-0.00196761,-0.00022528,0.00002529,0.0
 0153005,0.00000914,-0.00000010,0.00000513,0.00000324,-0.00001251,-0.00
 000728,-0.00001172,-0.00020564,0.00013262,-0.00010652,0.00017475,-0.00
 004581,0.00000710,-0.00001690,-0.00002191,-0.00000102,0.00000634,0.000
 00975,0.00027971,-0.00043355,0.00085875,0.00016936,0.00059842,0.000430
 21,-0.00004622,-0.00000559,-0.00005093,0.00001101,0.00003135,0.0002669
 8,-0.03788237,0.05934106,-0.28365736,-0.00149688,0.00358665,-0.0138940
 2,-0.00230430,0.00239922,-0.01229528,0.04255647,-0.06645391,0.30773469
 ,-0.00000264,-0.00009590,0.00014021,0.00003014,0.00003931,-0.00004044,
 -0.00006011,0.00000296,0.00000178,-0.00009498,0.00039651,-0.00042304,-
 0.00007363,0.00001035,-0.00026344,-0.00028908,0.00035254,0.00007997,0.
 00021140,-0.00003623,0.00019188,-0.00003073,-0.00034182,-0.00000174,-0
 .00018511,0.00005852,0.00001497,0.00432920,-0.00012854,-0.02075555,0.0
 0107927,-0.00023281,0.00058868,-0.00316864,-0.00100780,-0.00189226,-0.
 05076774,-0.01263407,0.02125443,0.00113510,-0.00365871,0.02803079,-0.0
 0467960,-0.00121345,0.00189238,0.00006783,0.00002924,0.00007154,-0.000
 25152,-0.00036292,0.00001679,-0.00163476,0.00298094,-0.00299131,0.0001
 3903,-0.00040842,0.00025215,0.00005373,-0.00000692,-0.00006676,-0.0000
 9045,0.00000003,0.00015475,0.00149918,0.00090262,0.00085276,-0.0002715
 3,-0.00012172,-0.00084406,0.00008148,0.00023943,-0.00030585,-0.0000201
 8,-0.00008656,-0.00008831,0.00153903,-0.00072721,-0.00010961,-0.000097
 22,0.00015432,0.00003592,0.00007024,0.00002425,-0.00034477,-0.00026159
 ,0.00048056,-0.00059768,0.05174388,0.00000321,0.00003851,-0.00003988,0
 .00001351,0.00001633,-0.00001870,-0.00001032,0.00001003,0.00001428,0.0
 0015469,-0.00030420,0.00008595,0.00005317,0.00044176,0.00006286,0.0001
 8183,-0.00011471,-0.00010768,-0.00005204,-0.00010852,0.00000575,-0.000
 07812,-0.00114296,-0.00108991,-0.00012359,0.00054052,0.00023258,-0.000
 30405,0.00234527,-0.01371794,0.00122466,0.00134352,0.00029850,-0.00197
 824,-0.00052458,-0.00270541,-0.01445448,-0.02748713,0.01466092,-0.0010
 8032,0.00288909,0.00449478,-0.00132687,0.00051581,0.00126836,0.0000051
 1,-0.00002121,-0.00000444,-0.00005561,-0.00015143,-0.00001201,0.003157
 84,-0.00354751,0.00540001,-0.00017125,0.00077028,-0.00029184,-0.000071
 10,0.00006893,0.00006710,-0.00001092,-0.00000015,0.00003347,0.00087347
 ,0.00090866,0.00129015,-0.00022197,0.00015272,-0.00026965,0.00016792,-
 0.00007101,-0.00026924,0.00004273,-0.00023700,0.00006706,-0.00123176,-
 0.00000916,0.00057360,0.00005233,-0.00004896,-0.00010743,-0.00028830,0
 .00019424,0.00002728,0.00013696,0.00008750,0.00004536,0.01539151,0.023
 44537,0.00000711,-0.00004446,0.00006762,0.00002531,0.00005164,-0.00002
 835,-0.00003983,0.00001824,0.00000621,-0.00013090,0.00022373,-0.000164
 64,0.00016440,-0.00011527,-0.00026438,-0.00009494,0.00023813,0.0003307
 1,0.00017769,-0.00000655,0.00009588,0.00000778,-0.00091443,-0.00076185
 ,-0.00004685,0.00021795,0.00013580,0.00364437,0.00098549,-0.01056724,0
 .00000640,-0.00026667,0.00091930,-0.00221905,-0.00026056,-0.00034545,0
 .02312919,0.00925797,-0.33030572,-0.00226022,0.00100461,-0.00969021,0.
 00219812,0.00001826,0.00015508,0.00003949,0.00001709,0.00003856,-0.000
 02851,-0.00010961,0.00001470,-0.00012893,-0.00002275,0.00093104,0.0002
 0594,-0.00011646,0.00045023,-0.00005840,0.00014221,-0.00003734,-0.0000
 8516,-0.00000180,0.00008763,-0.00056235,-0.00062416,0.00079151,0.00045
 825,0.00053637,0.00052841,0.00002370,0.00001820,0.00030288,0.00005344,
 0.00012139,-0.00003024,-0.00023212,0.00013042,0.00008963,-0.00002458,0
 .00004122,-0.00002323,0.00011863,-0.00015759,0.00020450,0.00050620,-0.
 00038873,0.00025765,-0.02485417,-0.00999387,0.34681131\\-0.00000090,0.
 00000112,0.00000170,-0.00000194,0.00000121,0.00000567,-0.00000057,0.00
 000409,0.00000024,0.00000057,0.00000233,-0.00000217,-0.00000094,0.0000
 0875,-0.00000137,-0.00000113,0.00000992,-0.00000375,-0.00000124,0.0000
 1199,-0.00000208,0.00000116,-0.00000065,-0.00000326,0.00000148,-0.0000
 0601,-0.00000278,-0.00000218,-0.00000319,0.00000631,-0.00000163,-0.000
 00015,0.00000676,-0.00000003,-0.00000575,0.00000520,-0.00000020,-0.000
 00018,0.00000052,0.00000145,-0.00000379,0.00000262,0.00000150,-0.00000
 820,0.00000031,0.00000049,-0.00000315,0.00000029,-0.00000285,0.0000097
 3,0.00000287,0.00000050,-0.00000066,-0.00000567,0.00000402,0.00000133,
 -0.00000482,0.00000310,-0.00000094,-0.00002010,0.00000100,0.00000291,-
 0.00000653,0.00000182,-0.00000202,-0.00000320,-0.00000006,0.00000251,-
 0.00000237,0.00000158,-0.00000472,-0.00000313,0.00000258,-0.00000170,-
 0.00000696,-0.00000161,-0.00000476,0.00000683,-0.00000160,-0.00000601,
 0.00001091,-0.00000055,-0.00000757,0.00000718,-0.00000238,-0.00000075,
 0.00000853,-0.00000145,0.00000428,0.00000225\\\@
 Job cpu time:  0 days 11 hours 36 minutes 53.3 seconds.
 File lengths (MBytes):  RWF=  80169 Int=      0 D2E=      0 Chk=     27 Scr=      1
 Normal termination of Gaussian 09 at Sun Jun 28 11:36:42 2015.
