 Entering Gaussian System, Link 0=g09
 Initial command:
 /usr/caen/gaussian-09revc/g09/l1.exe /scratch/avioli_flux/hetanjin/scratch/Gau-29939.inp -scrdir=/scratch/avioli_flux/hetanjin/scratch/
 Entering Link 1 = /usr/caen/gaussian-09revc/g09/l1.exe PID=     29940.
  
 Copyright (c) 1988,1990,1992,1993,1995,1998,2003,2009,2011,
            Gaussian, Inc.  All Rights Reserved.
  
 This is part of the Gaussian(R) 09 program.  It is based on
 the Gaussian(R) 03 system (copyright 2003, Gaussian, Inc.),
 the Gaussian(R) 98 system (copyright 1998, Gaussian, Inc.),
 the Gaussian(R) 94 system (copyright 1995, Gaussian, Inc.),
 the Gaussian 92(TM) system (copyright 1992, Gaussian, Inc.),
 the Gaussian 90(TM) system (copyright 1990, Gaussian, Inc.),
 the Gaussian 88(TM) system (copyright 1988, Gaussian, Inc.),
 the Gaussian 86(TM) system (copyright 1986, Carnegie Mellon
 University), and the Gaussian 82(TM) system (copyright 1983,
 Carnegie Mellon University). Gaussian is a federally registered
 trademark of Gaussian, Inc.
  
 This software contains proprietary and confidential information,
 including trade secrets, belonging to Gaussian, Inc.
  
 This software is provided under written license and may be
 used, copied, transmitted, or stored only in accord with that
 written license.
  
 The following legend is applicable only to US Government
 contracts under FAR:
  
                    RESTRICTED RIGHTS LEGEND
  
 Use, reproduction and disclosure by the US Government is
 subject to restrictions as set forth in subparagraphs (a)
 and (c) of the Commercial Computer Software - Restricted
 Rights clause in FAR 52.227-19.
  
 Gaussian, Inc.
 340 Quinnipiac St., Bldg. 40, Wallingford CT 06492
  
  
 ---------------------------------------------------------------
 Warning -- This program may not be used in any manner that
 competes with the business of Gaussian, Inc. or will provide
 assistance to any competitor of Gaussian, Inc.  The licensee
 of this program is prohibited from giving any competitor of
 Gaussian, Inc. access to this program.  By using this program,
 the user acknowledges that Gaussian, Inc. is engaged in the
 business of creating and licensing software in the field of
 computational chemistry and represents and warrants to the
 licensee that it is not a competitor of Gaussian, Inc. and that
 it will not use this program in any manner prohibited above.
 ---------------------------------------------------------------
  

 Cite this work as:
 Gaussian 09, Revision C.01,
 M. J. Frisch, G. W. Trucks, H. B. Schlegel, G. E. Scuseria, 
 M. A. Robb, J. R. Cheeseman, G. Scalmani, V. Barone, B. Mennucci, 
 G. A. Petersson, H. Nakatsuji, M. Caricato, X. Li, H. P. Hratchian, 
 A. F. Izmaylov, J. Bloino, G. Zheng, J. L. Sonnenberg, M. Hada, 
 M. Ehara, K. Toyota, R. Fukuda, J. Hasegawa, M. Ishida, T. Nakajima, 
 Y. Honda, O. Kitao, H. Nakai, T. Vreven, J. A. Montgomery, Jr., 
 J. E. Peralta, F. Ogliaro, M. Bearpark, J. J. Heyd, E. Brothers, 
 K. N. Kudin, V. N. Staroverov, T. Keith, R. Kobayashi, J. Normand, 
 K. Raghavachari, A. Rendell, J. C. Burant, S. S. Iyengar, J. Tomasi, 
 M. Cossi, N. Rega, J. M. Millam, M. Klene, J. E. Knox, J. B. Cross, 
 V. Bakken, C. Adamo, J. Jaramillo, R. Gomperts, R. E. Stratmann, 
 O. Yazyev, A. J. Austin, R. Cammi, C. Pomelli, J. W. Ochterski, 
 R. L. Martin, K. Morokuma, V. G. Zakrzewski, G. A. Voth, 
 P. Salvador, J. J. Dannenberg, S. Dapprich, A. D. Daniels, 
 O. Farkas, J. B. Foresman, J. V. Ortiz, J. Cioslowski, 
 and D. J. Fox, Gaussian, Inc., Wallingford CT, 2010.
 
 ******************************************
 Gaussian 09:  EM64L-G09RevC.01 23-Sep-2011
                 7-Feb-2014 
 ******************************************
 %mem=30GB
 %nprocshared=8
 Will use up to    8 processors via shared memory.
 %chk=C9H18OOH_1_26_d.chk
 --------------------------------------------------
 #p UB3LYP/6-311++G(d,p) guess=mix stable=(opt,xqc)
 --------------------------------------------------
 1/38=1/1;
 2/12=2,17=6,18=5,40=1/2;
 3/5=4,6=6,7=1111,11=2,16=1,25=1,30=1,74=-5,116=2/1,2,3;
 4/13=-1/1;
 5/5=2,38=5/2;
 6/7=2,8=2,9=2,10=2,28=1/1;
 8/6=1,10=90,11=11/1;
 9/8=-3,42=1,46=1/14;
 5/5=2,8=3,13=1,17=40,38=5/2,8(-2);
 6/7=2,8=2,9=2,10=2,28=1/1;
 99/5=1,9=1/99;
 Leave Link    1 at Fri Feb  7 19:16:39 2014, MaxMem= 4026531840 cpu:       3.6
 (Enter /usr/caen/gaussian-09revc/g09/l101.exe)
 --------------------------------------------
 C9H18OOH_1_26_d using cbs-qb3 to cal. energy
 --------------------------------------------
 Charge =  0 Multiplicity = 2
 Symbolic Z-Matrix:
 C                    -2.93548  -1.84466  -0.28741 
 H                    -2.48452  -2.81573  -0.50449 
 H                    -3.21818  -1.3794   -1.23458 
 H                    -3.8508   -2.01525   0.2875 
 C                    -1.9508   -0.9509    0.48169 
 H                    -1.7192   -1.4347    1.44536 
 C                    -0.66212  -0.76248  -0.25775 
 H                    -0.6944   -0.77032  -1.34365 
 C                     0.57135  -0.24731   0.40713 
 H                     0.65194  -0.66984   1.41993 
 H                     0.48314   0.84241   0.55193 
 C                     1.85918  -0.54792  -0.37712 
 H                     1.7925   -0.07928  -1.36813 
 H                     1.9104   -1.62852  -0.55425 
 C                     3.16543  -0.09801   0.30337 
 H                     3.185    -0.54087   1.30913 
 C                     4.38165  -0.63411  -0.46535 
 H                     4.40966  -0.22836  -1.48284 
 H                     5.31788  -0.35585   0.02784 
 H                     4.35509  -1.72505  -0.54358 
 C                    -2.63011   0.37766   0.89925 
 H                    -3.50568   0.15857   1.5215 
 H                    -1.94643   1.01621   1.46819 
 C                     3.25821   1.42698   0.45849 
 H                     4.20013   1.71397   0.93566 
 H                     3.21856   1.91944  -0.51979 
 H                     2.44566   1.83044   1.06765 
 O                    -3.19887   1.12551  -0.17078 
 O                    -2.10862   1.77018  -0.89816 
 H                    -2.4348    2.68103  -0.90568 
 
 NAtoms=     30 NQM=        0 NQMF=       0 NMMI=     30 NMMIF=      0
                NMic=       0 NMicF=      0.
                    Isotopes and Nuclear Properties:
 (Nuclear quadrupole moments (NQMom) in fm**2, nuclear magnetic moments (NMagM)
  in nuclear magnetons)

  Atom         1           2           3           4           5           6           7           8           9          10
 IAtWgt=          12           1           1           1          12           1          12           1          12           1
 AtmWgt=  12.0000000   1.0078250   1.0078250   1.0078250  12.0000000   1.0078250  12.0000000   1.0078250  12.0000000   1.0078250
 NucSpn=           0           1           1           1           0           1           0           1           0           1
 AtZEff=   0.0000000   0.0000000   0.0000000   0.0000000   0.0000000   0.0000000   0.0000000   0.0000000   0.0000000   0.0000000
 NQMom=    0.0000000   0.0000000   0.0000000   0.0000000   0.0000000   0.0000000   0.0000000   0.0000000   0.0000000   0.0000000
 NMagM=    0.0000000   2.7928460   2.7928460   2.7928460   0.0000000   2.7928460   0.0000000   2.7928460   0.0000000   2.7928460

  Atom        11          12          13          14          15          16          17          18          19          20
 IAtWgt=           1          12           1           1          12           1          12           1           1           1
 AtmWgt=   1.0078250  12.0000000   1.0078250   1.0078250  12.0000000   1.0078250  12.0000000   1.0078250   1.0078250   1.0078250
 NucSpn=           1           0           1           1           0           1           0           1           1           1
 AtZEff=   0.0000000   0.0000000   0.0000000   0.0000000   0.0000000   0.0000000   0.0000000   0.0000000   0.0000000   0.0000000
 NQMom=    0.0000000   0.0000000   0.0000000   0.0000000   0.0000000   0.0000000   0.0000000   0.0000000   0.0000000   0.0000000
 NMagM=    2.7928460   0.0000000   2.7928460   2.7928460   0.0000000   2.7928460   0.0000000   2.7928460   2.7928460   2.7928460

  Atom        21          22          23          24          25          26          27          28          29          30
 IAtWgt=          12           1           1          12           1           1           1          16          16           1
 AtmWgt=  12.0000000   1.0078250   1.0078250  12.0000000   1.0078250   1.0078250   1.0078250  15.9949146  15.9949146   1.0078250
 NucSpn=           0           1           1           0           1           1           1           0           0           1
 AtZEff=   0.0000000   0.0000000   0.0000000   0.0000000   0.0000000   0.0000000   0.0000000   0.0000000   0.0000000   0.0000000
 NQMom=    0.0000000   0.0000000   0.0000000   0.0000000   0.0000000   0.0000000   0.0000000   0.0000000   0.0000000   0.0000000
 NMagM=    0.0000000   2.7928460   2.7928460   0.0000000   2.7928460   2.7928460   2.7928460   0.0000000   0.0000000   2.7928460
 Leave Link  101 at Fri Feb  7 19:16:40 2014, MaxMem= 4026531840 cpu:       0.3
 (Enter /usr/caen/gaussian-09revc/g09/l202.exe)
                          Input orientation:                          
 ---------------------------------------------------------------------
 Center     Atomic      Atomic             Coordinates (Angstroms)
 Number     Number       Type             X           Y           Z
 ---------------------------------------------------------------------
      1          6           0       -2.935479   -1.844659   -0.287406
      2          1           0       -2.484520   -2.815728   -0.504488
      3          1           0       -3.218176   -1.379401   -1.234584
      4          1           0       -3.850797   -2.015251    0.287502
      5          6           0       -1.950796   -0.950898    0.481693
      6          1           0       -1.719203   -1.434703    1.445363
      7          6           0       -0.662115   -0.762478   -0.257749
      8          1           0       -0.694402   -0.770315   -1.343652
      9          6           0        0.571353   -0.247308    0.407131
     10          1           0        0.651943   -0.669837    1.419929
     11          1           0        0.483139    0.842409    0.551931
     12          6           0        1.859182   -0.547916   -0.377123
     13          1           0        1.792503   -0.079283   -1.368129
     14          1           0        1.910397   -1.628524   -0.554250
     15          6           0        3.165430   -0.098011    0.303368
     16          1           0        3.185002   -0.540873    1.309133
     17          6           0        4.381649   -0.634109   -0.465353
     18          1           0        4.409662   -0.228358   -1.482842
     19          1           0        5.317876   -0.355854    0.027844
     20          1           0        4.355086   -1.725050   -0.543578
     21          6           0       -2.630106    0.377661    0.899251
     22          1           0       -3.505681    0.158572    1.521502
     23          1           0       -1.946434    1.016213    1.468191
     24          6           0        3.258205    1.426975    0.458491
     25          1           0        4.200132    1.713967    0.935656
     26          1           0        3.218559    1.919442   -0.519791
     27          1           0        2.445663    1.830437    1.067650
     28          8           0       -3.198865    1.125513   -0.170781
     29          8           0       -2.108621    1.770181   -0.898160
     30          1           0       -2.434798    2.681028   -0.905676
 ---------------------------------------------------------------------
                    Distance matrix (angstroms):
                    1          2          3          4          5
     1  C    0.000000
     2  H    1.092458   0.000000
     3  H    1.092487   1.770403   0.000000
     4  H    1.094270   1.770515   1.766709   0.000000
     5  C    1.536204   2.176007   2.176114   2.186449   0.000000
     6  H    2.156358   2.508956   3.071171   2.494268   1.102888
     7  C    2.517971   2.756424   2.805040   3.469068   1.497657
     8  H    2.700425   2.844720   2.598522   3.764752   2.223290
     9  C    3.915582   4.094654   4.282218   4.763963   2.619510
    10  H    4.143042   4.259769   4.746340   4.833963   2.780923
    11  H    4.428518   4.827524   4.672024   5.197994   3.024057
    12  C    4.967732   4.901728   5.215954   5.932846   3.926308
    13  H    5.161233   5.150430   5.178325   6.191601   4.265424
    14  H    4.858028   4.552716   5.179496   5.835192   4.054771
    15  C    6.373451   6.321436   6.690118   7.273479   5.189893
    16  H    6.458257   6.372414   6.940772   7.260853   5.218160
    17  C    7.418724   7.204531   7.674928   8.381379   6.410703
    18  H    7.615287   7.428419   7.718189   8.634946   6.696035
    19  H    8.392484   8.198277   8.689393   9.321244   7.307096
    20  H    7.296045   6.926133   7.612572   8.252965   6.435421
    21  C    2.537738   3.491334   2.826012   2.755059   1.549479
    22  H    2.758661   3.740838   3.169232   2.523364   2.174809
    23  H    3.499274   4.343359   3.829006   3.769668   2.200619
    24  C    7.044265   7.204634   7.258496   7.900384   5.726125
    25  H    8.067010   8.202239   8.325272   8.896327   6.718743
    26  H    7.217662   7.412636   7.268071   8.130764   5.997004
    27  H    6.655764   6.954507   6.905245   7.419121   5.235267
    28  O    2.984107   4.019332   2.721515   3.240283   2.508960
    29  O    3.758162   4.618099   3.356212   4.332490   3.055024
    30  H    4.595082   5.511601   4.148367   5.048145   3.917900
                    6          7          8          9         10
     6  H    0.000000
     7  C    2.114217   0.000000
     8  H    3.044706   1.086411   0.000000
     9  C    2.781093   1.492953   2.222816   0.000000
    10  H    2.491586   2.133057   3.075731   1.100357   0.000000
    11  H    3.291469   2.131396   2.753310   1.102829   1.751800
    12  C    4.112504   2.533224   2.739422   1.537505   2.168337
    13  H    4.699466   2.779361   2.581244   2.161247   3.069674
    14  H    4.148495   2.730525   2.853884   2.150593   2.529856
    15  C    5.191391   3.925108   4.250055   2.600441   2.809148
    16  H    4.986854   4.159872   4.705283   2.780458   2.538759
    17  C    6.442995   5.049667   5.153276   3.928002   4.179267
    18  H    6.898742   5.244908   5.134643   4.278431   4.768798
    19  H    7.259047   6.000600   6.180636   4.762890   4.879284
    20  H    6.398217   5.116693   5.200862   4.171835   4.322280
    21  C    2.100630   2.551775   3.177328   3.298804   3.484279
    22  H    2.394958   3.478496   4.120100   4.246030   4.240568
    23  H    2.461533   2.791431   3.558894   3.010247   3.097847
    24  C    5.825608   4.547044   4.868152   3.166234   3.480458
    25  H    6.724020   5.585556   5.943346   4.158603   4.301940
    26  H    6.284394   4.724510   4.819212   3.544247   4.129697
    27  H    5.305649   4.258894   4.736908   2.875126   3.097241
    28  O    3.369870   3.163412   3.352928   4.053784   4.536779
    29  O    3.989364   2.986112   2.941530   3.599487   4.352923
    30  H    4.793611   3.926824   3.890060   4.397222   5.115145
                   11         12         13         14         15
    11  H    0.000000
    12  C    2.165557   0.000000
    13  H    2.500116   1.098251   0.000000
    14  H    3.060427   1.096226   1.753980   0.000000
    15  C    2.853219   1.540054   2.163142   2.157101   0.000000
    16  H    3.128400   2.145066   3.052843   2.505953   1.099124
    17  C    4.291078   2.525481   2.797591   2.665305   1.535422
    18  H    4.550212   2.798157   2.623910   3.011490   2.180745
    19  H    5.008511   3.487614   3.801774   3.683671   2.185274
    20  H    4.773255   2.764577   3.155197   2.446617   2.186288
    21  C    3.166846   4.758102   4.990920   5.172389   5.845475
    22  H    4.161536   5.734602   6.039644   6.069296   6.786266
    23  H    2.602415   4.509368   4.819178   5.095100   5.359987
    24  C    2.837506   2.560412   2.784535   3.489743   1.535660
    25  H    3.837043   3.509922   3.784158   4.316822   2.180289
    26  H    3.129075   2.820659   2.597733   3.781605   2.179571
    27  H    2.256915   2.843922   3.163332   3.857652   2.195701
    28  O    3.762926   5.331677   5.272469   5.816900   6.498160
    29  O    3.111390   4.624772   4.342828   5.274654   5.722711
    30  H    3.744262   5.398492   5.069838   6.129964   6.367684
                   16         17         18         19         20
    16  H    0.000000
    17  C    2.142302   0.000000
    18  H    3.064732   1.095766   0.000000
    19  H    2.495012   1.094162   1.767280   0.000000
    20  H    2.490765   1.094064   1.767847   1.768668   0.000000
    21  C    5.901457   7.214605   7.456538   8.029185   7.436132
    22  H    6.730495   8.172265   8.475167   8.963861   8.342916
    23  H    5.364835   6.819589   7.117409   7.531757   7.160370
    24  C    2.145082   2.522634   2.799063   2.757931   3.484616
    25  H    2.500855   2.740298   3.108965   2.521435   3.746863
    26  H    3.065818   2.806486   2.638037   3.143884   3.817667
    27  H    2.495606   3.488858   3.821117   3.756417   4.345508
    28  O    6.761712   7.787633   7.838632   8.646894   8.082503
    29  O    6.183491   6.934806   6.842808   7.780126   7.356757
    30  H    6.846034   7.592626   7.459509   8.378429   8.102294
                   21         22         23         24         25
    21  C    0.000000
    22  H    1.096279   0.000000
    23  H    1.094920   1.780349   0.000000
    24  C    5.997294   6.963404   5.317564   0.000000
    25  H    6.959827   7.883021   6.208923   1.094202   0.000000
    26  H    6.212701   7.244511   5.607588   1.095961   1.767493
    27  H    5.282267   6.198355   4.484853   1.092740   1.763278
    28  O    1.423987   1.973052   2.065613   6.494661   7.504375
    29  O    2.332755   3.225496   2.488853   5.546270   6.570115
    30  H    2.932815   3.660706   2.940298   5.986976   6.953273
                   26         27         28         29         30
    26  H    0.000000
    27  H    1.767840   0.000000
    28  O    6.475760   5.821626   0.000000
    29  O    5.342686   4.960801   1.460585   0.000000
    30  H    5.717461   5.332581   1.882418   0.967518   0.000000
 Stoichiometry    C9H19O2(2)
 Framework group  C1[X(C9H19O2)]
 Deg. of freedom    84
 Full point group                 C1      NOp   1
 Largest Abelian subgroup         C1      NOp   1
 Largest concise Abelian subgroup C1      NOp   1
                         Standard orientation:                         
 ---------------------------------------------------------------------
 Center     Atomic      Atomic             Coordinates (Angstroms)
 Number     Number       Type             X           Y           Z
 ---------------------------------------------------------------------
      1          6           0       -2.935479   -1.844659   -0.287406
      2          1           0       -2.484520   -2.815728   -0.504488
      3          1           0       -3.218176   -1.379401   -1.234584
      4          1           0       -3.850797   -2.015251    0.287502
      5          6           0       -1.950796   -0.950898    0.481693
      6          1           0       -1.719203   -1.434703    1.445363
      7          6           0       -0.662115   -0.762478   -0.257749
      8          1           0       -0.694402   -0.770315   -1.343652
      9          6           0        0.571353   -0.247308    0.407131
     10          1           0        0.651943   -0.669837    1.419929
     11          1           0        0.483139    0.842409    0.551931
     12          6           0        1.859182   -0.547916   -0.377123
     13          1           0        1.792503   -0.079283   -1.368129
     14          1           0        1.910397   -1.628524   -0.554250
     15          6           0        3.165430   -0.098011    0.303368
     16          1           0        3.185002   -0.540873    1.309133
     17          6           0        4.381649   -0.634109   -0.465353
     18          1           0        4.409662   -0.228358   -1.482842
     19          1           0        5.317876   -0.355854    0.027844
     20          1           0        4.355086   -1.725050   -0.543578
     21          6           0       -2.630106    0.377661    0.899251
     22          1           0       -3.505681    0.158572    1.521502
     23          1           0       -1.946434    1.016213    1.468191
     24          6           0        3.258205    1.426975    0.458491
     25          1           0        4.200132    1.713967    0.935656
     26          1           0        3.218559    1.919442   -0.519791
     27          1           0        2.445663    1.830437    1.067650
     28          8           0       -3.198865    1.125513   -0.170781
     29          8           0       -2.108621    1.770181   -0.898160
     30          1           0       -2.434798    2.681028   -0.905676
 ---------------------------------------------------------------------
 Rotational constants (GHZ):      1.8981466      0.4105336      0.3667349
 Leave Link  202 at Fri Feb  7 19:16:40 2014, MaxMem= 4026531840 cpu:       0.3
 (Enter /usr/caen/gaussian-09revc/g09/l301.exe)
 Standard basis: 6-311++G(d,p) (5D, 7F)
 Ernie: Thresh=  0.10000D-02 Tol=  0.10000D-05 Strict=F.
 There are   375 symmetry adapted basis functions of A   symmetry.
 Integral buffers will be    131072 words long.
 Raffenetti 2 integral format.
 Two-electron integral symmetry is turned on.
   375 basis functions,   567 primitive gaussians,   386 cartesian basis functions
    45 alpha electrons       44 beta electrons
       nuclear repulsion energy       643.5145909260 Hartrees.
 IExCor=  402 DFT=T Ex+Corr=B3LYP ExCW=0 ScaHFX=  0.200000
 ScaDFX=  0.800000  0.720000  1.000000  0.810000 ScalE2=  1.000000  1.000000
 IRadAn=      0 IRanWt=     -1 IRanGd=            0 ICorTp=0
 NAtoms=   30 NActive=   30 NUniq=   30 SFac= 1.00D+00 NAtFMM=   60 NAOKFM=F Big=F
 Leave Link  301 at Fri Feb  7 19:16:40 2014, MaxMem= 4026531840 cpu:       0.4
 (Enter /usr/caen/gaussian-09revc/g09/l302.exe)
 NPDir=0 NMtPBC=     1 NCelOv=     1 NCel=       1 NClECP=     1 NCelD=      1
         NCelK=      1 NCelE2=     1 NClLst=     1 CellRange=     0.0.
 One-electron integrals computed using PRISM.
 NBasis=   375 RedAO= T  NBF=   375
 NBsUse=   375 1.00D-06 NBFU=   375
 Precomputing XC quadrature grid using
 IXCGrd= 2 IRadAn=           0 IRanWt=          -1 IRanGd=           0 AccXCQ= 0.00D+00.
 NRdTot=    1961 NPtTot=      249830 NUsed=      263960 NTot=      263992
 NSgBfM=   386   386   386   386   386 NAtAll=    30    30.
 Leave Link  302 at Fri Feb  7 19:16:42 2014, MaxMem= 4026531840 cpu:      12.4
 (Enter /usr/caen/gaussian-09revc/g09/l303.exe)
 DipDrv:  MaxL=1.
 Leave Link  303 at Fri Feb  7 19:16:43 2014, MaxMem= 4026531840 cpu:       0.9
 (Enter /usr/caen/gaussian-09revc/g09/l401.exe)
 Harris functional with IExCor=  402 diagonalized for initial guess.
 ExpMin= 3.60D-02 ExpMax= 8.59D+03 ExpMxC= 1.30D+03 IAcc=3 IRadAn=         5 AccDes= 0.00D+00
 HarFok:  IExCor=  402 AccDes= 0.00D+00 IRadAn=         5 IDoV= 1
 ScaDFX=  1.000000  1.000000  1.000000  1.000000
 FoFCou: FMM=F IPFlag=           0 FMFlag=      100000 FMFlg1=           0
         NFxFlg=           0 DoJE=T BraDBF=F KetDBF=T FulRan=T
         Omega=  0.000000  0.000000  1.000000  0.000000  0.000000 ICntrl=     500 IOpCl=  0
         NMat0=    1 NMatS0=    1 NMatT0=    0 NMatD0=    1 NMtDS0=    0 NMtDT0=    0
         I1Cent=           4 NGrid=           0.
 Petite list used in FoFCou.
 Harris En= -504.907373884641    
 Mixing orbitals, IMix= 1 IMixAn=  0 NRI=1 NE=   45 Coef=  7.07106781D-01  7.07106781D-01
 Mixing orbitals, IMix= 1 IMixAn=  0 NRI=1 NE=   44 Coef= -7.07106781D-01  7.07106781D-01
 Initial guess orbital symmetries:
 Alpha Orbitals:
       Occupied  (A) (A) (A) (A) (A) (A) (A) (A) (A) (A) (A) (A)
                 (A) (A) (A) (A) (A) (A) (A) (A) (A) (A) (A) (A)
                 (A) (A) (A) (A) (A) (A) (A) (A) (A) (A) (A) (A)
                 (A) (A) (A) (A) (A) (A) (A) (A) (A)
       Virtual   (A) (A) (A) (A) (A) (A) (A) (A) (A) (A) (A) (A)
                 (A) (A) (A) (A) (A) (A) (A) (A) (A) (A) (A) (A)
                 (A) (A) (A) (A) (A) (A) (A) (A) (A) (A) (A) (A)
                 (A) (A) (A) (A) (A) (A) (A) (A) (A) (A) (A) (A)
                 (A) (A) (A) (A) (A) (A) (A) (A) (A) (A) (A) (A)
                 (A) (A) (A) (A) (A) (A) (A) (A) (A) (A) (A) (A)
                 (A) (A) (A) (A) (A) (A) (A) (A) (A) (A) (A) (A)
                 (A) (A) (A) (A) (A) (A) (A) (A) (A) (A) (A) (A)
                 (A) (A) (A) (A) (A) (A) (A) (A) (A) (A) (A) (A)
                 (A) (A) (A) (A) (A) (A) (A) (A) (A) (A) (A) (A)
                 (A) (A) (A) (A) (A) (A) (A) (A) (A) (A) (A) (A)
                 (A) (A) (A) (A) (A) (A) (A) (A) (A) (A) (A) (A)
                 (A) (A) (A) (A) (A) (A) (A) (A) (A) (A) (A) (A)
                 (A) (A) (A) (A) (A) (A) (A) (A) (A) (A) (A) (A)
                 (A) (A) (A) (A) (A) (A) (A) (A) (A) (A) (A) (A)
                 (A) (A) (A) (A) (A) (A) (A) (A) (A) (A) (A) (A)
                 (A) (A) (A) (A) (A) (A) (A) (A) (A) (A) (A) (A)
                 (A) (A) (A) (A) (A) (A) (A) (A) (A) (A) (A) (A)
                 (A) (A) (A) (A) (A) (A) (A) (A) (A) (A) (A) (A)
                 (A) (A) (A) (A) (A) (A) (A) (A) (A) (A) (A) (A)
                 (A) (A) (A) (A) (A) (A) (A) (A) (A) (A) (A) (A)
                 (A) (A) (A) (A) (A) (A) (A) (A) (A) (A) (A) (A)
                 (A) (A) (A) (A) (A) (A) (A) (A) (A) (A) (A) (A)
                 (A) (A) (A) (A) (A) (A) (A) (A) (A) (A) (A) (A)
                 (A) (A) (A) (A) (A) (A) (A) (A) (A) (A) (A) (A)
                 (A) (A) (A) (A) (A) (A) (A) (A) (A) (A) (A) (A)
                 (A) (A) (A) (A) (A) (A) (A) (A) (A) (A) (A) (A)
                 (A) (A) (A) (A) (A) (A)
 Beta  Orbitals:
       Occupied  (A) (A) (A) (A) (A) (A) (A) (A) (A) (A) (A) (A)
                 (A) (A) (A) (A) (A) (A) (A) (A) (A) (A) (A) (A)
                 (A) (A) (A) (A) (A) (A) (A) (A) (A) (A) (A) (A)
                 (A) (A) (A) (A) (A) (A) (A) (A)
       Virtual   (A) (A) (A) (A) (A) (A) (A) (A) (A) (A) (A) (A)
                 (A) (A) (A) (A) (A) (A) (A) (A) (A) (A) (A) (A)
                 (A) (A) (A) (A) (A) (A) (A) (A) (A) (A) (A) (A)
                 (A) (A) (A) (A) (A) (A) (A) (A) (A) (A) (A) (A)
                 (A) (A) (A) (A) (A) (A) (A) (A) (A) (A) (A) (A)
                 (A) (A) (A) (A) (A) (A) (A) (A) (A) (A) (A) (A)
                 (A) (A) (A) (A) (A) (A) (A) (A) (A) (A) (A) (A)
                 (A) (A) (A) (A) (A) (A) (A) (A) (A) (A) (A) (A)
                 (A) (A) (A) (A) (A) (A) (A) (A) (A) (A) (A) (A)
                 (A) (A) (A) (A) (A) (A) (A) (A) (A) (A) (A) (A)
                 (A) (A) (A) (A) (A) (A) (A) (A) (A) (A) (A) (A)
                 (A) (A) (A) (A) (A) (A) (A) (A) (A) (A) (A) (A)
                 (A) (A) (A) (A) (A) (A) (A) (A) (A) (A) (A) (A)
                 (A) (A) (A) (A) (A) (A) (A) (A) (A) (A) (A) (A)
                 (A) (A) (A) (A) (A) (A) (A) (A) (A) (A) (A) (A)
                 (A) (A) (A) (A) (A) (A) (A) (A) (A) (A) (A) (A)
                 (A) (A) (A) (A) (A) (A) (A) (A) (A) (A) (A) (A)
                 (A) (A) (A) (A) (A) (A) (A) (A) (A) (A) (A) (A)
                 (A) (A) (A) (A) (A) (A) (A) (A) (A) (A) (A) (A)
                 (A) (A) (A) (A) (A) (A) (A) (A) (A) (A) (A) (A)
                 (A) (A) (A) (A) (A) (A) (A) (A) (A) (A) (A) (A)
                 (A) (A) (A) (A) (A) (A) (A) (A) (A) (A) (A) (A)
                 (A) (A) (A) (A) (A) (A) (A) (A) (A) (A) (A) (A)
                 (A) (A) (A) (A) (A) (A) (A) (A) (A) (A) (A) (A)
                 (A) (A) (A) (A) (A) (A) (A) (A) (A) (A) (A) (A)
                 (A) (A) (A) (A) (A) (A) (A) (A) (A) (A) (A) (A)
                 (A) (A) (A) (A) (A) (A) (A) (A) (A) (A) (A) (A)
                 (A) (A) (A) (A) (A) (A) (A)
 The electronic state of the initial guess is 2-A.
 Initial guess <Sx>= 0.0000 <Sy>= 0.0000 <Sz>= 0.5000 <S**2>= 1.0000 S= 0.6180
 Leave Link  401 at Fri Feb  7 19:16:49 2014, MaxMem= 4026531840 cpu:      40.4
 (Enter /usr/caen/gaussian-09revc/g09/l502.exe)
 UHF open shell SCF:
 Requested convergence on RMS density matrix=1.00D-08 within 128 cycles.
 Requested convergence on MAX density matrix=1.00D-06.
 Requested convergence on             energy=1.00D-06.
 No special actions if energy rises.
 Using DIIS extrapolation, IDIIS=  1040.
 Integral symmetry usage will be decided dynamically.
       263677 words used for storage of precomputed grid.
 IEnd=      734811 IEndB=      734811 NGot=  4026531840 MDV=  4025963052
 LenX=  4025963052 LenY=  4025813615
 Fock matrices will be formed incrementally for  20 cycles.

 Cycle   1  Pass 1  IDiag  1:
 FoFCou: FMM=F IPFlag=           0 FMFlag=      100000 FMFlg1=           0
         NFxFlg=           0 DoJE=F BraDBF=F KetDBF=F FulRan=T
         Omega=  0.000000  0.000000  1.000000  0.000000  0.000000 ICntrl=       0 IOpCl=  1
         NMat0=    1 NMatS0=    1 NMatT0=    0 NMatD0=    1 NMtDS0=    0 NMtDT0=    0
         I1Cent=           0 NGrid=           0.
 Symmetry not used in FoFCou.
 E= -504.364883215541    
 DIIS: error= 4.04D-02 at cycle   1 NSaved=   1.
 NSaved= 1 IEnMin= 1 EnMin= -504.364883215541     IErMin= 1 ErrMin= 4.04D-02
 ErrMax= 4.04D-02 EMaxC= 1.00D-01 BMatC= 1.49D+00 BMatP= 1.49D+00
 IDIUse=3 WtCom= 5.96D-01 WtEn= 4.04D-01
 Coeff-Com:  0.100D+01
 Coeff-En:   0.100D+01
 Coeff:      0.100D+01
 Gap=     0.038 Goal=   None    Shift=    0.000
 Gap=     0.047 Goal=   None    Shift=    0.000
 GapD=    0.038 DampG=0.250 DampE=0.500 DampFc=0.2500 IDamp=-1.
 Damping current iteration by 2.50D-01
 RMSDP=2.78D-02 MaxDP=6.33D+00              OVMax= 5.73D-01

 Cycle   2  Pass 1  IDiag  1:
 RMSU=  2.36D-03    CP:  8.64D-01
 E= -504.515808288197     Delta-E=       -0.150925072656 Rises=F Damp=T
 DIIS: error= 1.77D-02 at cycle   2 NSaved=   2.
 NSaved= 2 IEnMin= 2 EnMin= -504.515808288197     IErMin= 2 ErrMin= 1.77D-02
 ErrMax= 1.77D-02 EMaxC= 1.00D-01 BMatC= 3.73D-01 BMatP= 1.49D+00
 IDIUse=3 WtCom= 8.23D-01 WtEn= 1.77D-01
 Coeff-Com: -0.815D+00 0.182D+01
 Coeff-En:   0.000D+00 0.100D+01
 Coeff:     -0.671D+00 0.167D+01
 Gap=     0.127 Goal=   None    Shift=    0.000
 Gap=     0.154 Goal=   None    Shift=    0.000
 RMSDP=1.80D-02 MaxDP=3.98D+00 DE=-1.51D-01 OVMax= 2.11D-01

 Cycle   3  Pass 1  IDiag  1:
 RMSU=  6.52D-03    CP:  5.34D-01  2.87D+00
 E= -504.839062595938     Delta-E=       -0.323254307741 Rises=F Damp=F
 DIIS: error= 6.08D-03 at cycle   3 NSaved=   3.
 NSaved= 3 IEnMin= 3 EnMin= -504.839062595938     IErMin= 3 ErrMin= 6.08D-03
 ErrMax= 6.08D-03 EMaxC= 1.00D-01 BMatC= 4.05D-02 BMatP= 3.73D-01
 IDIUse=3 WtCom= 9.39D-01 WtEn= 6.08D-02
 Coeff-Com: -0.266D+00 0.619D+00 0.648D+00
 Coeff-En:   0.000D+00 0.000D+00 0.100D+01
 Coeff:     -0.250D+00 0.581D+00 0.669D+00
 Gap=     0.146 Goal=   None    Shift=    0.000
 Gap=     0.205 Goal=   None    Shift=    0.000
 RMSDP=1.72D-03 MaxDP=1.28D-01 DE=-3.23D-01 OVMax= 6.55D-02

 Cycle   4  Pass 1  IDiag  1:
 RMSU=  1.32D-03    CP:  5.31D-01  2.93D+00  9.76D-01
 E= -504.843174083045     Delta-E=       -0.004111487107 Rises=F Damp=F
 DIIS: error= 6.15D-03 at cycle   4 NSaved=   4.
 NSaved= 4 IEnMin= 4 EnMin= -504.843174083045     IErMin= 3 ErrMin= 6.08D-03
 ErrMax= 6.15D-03 EMaxC= 1.00D-01 BMatC= 3.58D-02 BMatP= 4.05D-02
 IDIUse=3 WtCom= 9.39D-01 WtEn= 6.15D-02
 Coeff-Com: -0.247D-01 0.750D-01 0.474D+00 0.476D+00
 Coeff-En:   0.000D+00 0.000D+00 0.371D+00 0.629D+00
 Coeff:     -0.232D-01 0.704D-01 0.468D+00 0.485D+00
 Gap=     0.160 Goal=   None    Shift=    0.000
 Gap=     0.218 Goal=   None    Shift=    0.000
 RMSDP=1.19D-03 MaxDP=1.84D-01 DE=-4.11D-03 OVMax= 3.14D-02

 Cycle   5  Pass 1  IDiag  1:
 RMSU=  4.68D-04    CP:  5.11D-01  2.89D+00  9.54D-01  7.91D-01
 E= -504.849840917103     Delta-E=       -0.006666834058 Rises=F Damp=F
 DIIS: error= 1.26D-03 at cycle   5 NSaved=   5.
 NSaved= 5 IEnMin= 5 EnMin= -504.849840917103     IErMin= 5 ErrMin= 1.26D-03
 ErrMax= 1.26D-03 EMaxC= 1.00D-01 BMatC= 2.04D-03 BMatP= 3.58D-02
 IDIUse=3 WtCom= 9.87D-01 WtEn= 1.26D-02
 Coeff-Com:  0.151D-01-0.310D-01 0.812D-01 0.212D+00 0.722D+00
 Coeff-En:   0.000D+00 0.000D+00 0.000D+00 0.000D+00 0.100D+01
 Coeff:      0.149D-01-0.306D-01 0.802D-01 0.210D+00 0.726D+00
 Gap=     0.165 Goal=   None    Shift=    0.000
 Gap=     0.221 Goal=   None    Shift=    0.000
 RMSDP=4.00D-04 MaxDP=6.06D-02 DE=-6.67D-03 OVMax= 1.63D-02

 Cycle   6  Pass 1  IDiag  1:
 RMSU=  1.81D-04    CP:  5.17D-01  2.86D+00  9.70D-01  8.41D-01  9.38D-01
 E= -504.850295936972     Delta-E=       -0.000455019870 Rises=F Damp=F
 DIIS: error= 3.96D-04 at cycle   6 NSaved=   6.
 NSaved= 6 IEnMin= 6 EnMin= -504.850295936972     IErMin= 6 ErrMin= 3.96D-04
 ErrMax= 3.96D-04 EMaxC= 1.00D-01 BMatC= 3.86D-04 BMatP= 2.04D-03
 IDIUse=3 WtCom= 9.96D-01 WtEn= 3.96D-03
 Coeff-Com:  0.694D-02-0.171D-01-0.427D-01 0.185D-01 0.350D+00 0.684D+00
 Coeff-En:   0.000D+00 0.000D+00 0.000D+00 0.000D+00 0.000D+00 0.100D+01
 Coeff:      0.691D-02-0.170D-01-0.425D-01 0.184D-01 0.349D+00 0.685D+00
 Gap=     0.166 Goal=   None    Shift=    0.000
 Gap=     0.222 Goal=   None    Shift=    0.000
 RMSDP=1.24D-04 MaxDP=1.82D-02 DE=-4.55D-04 OVMax= 5.78D-03

 Cycle   7  Pass 1  IDiag  1:
 RMSU=  7.93D-05    CP:  5.18D-01  2.87D+00  9.69D-01  8.68D-01  9.82D-01
                    CP:  1.05D+00
 E= -504.850402529637     Delta-E=       -0.000106592664 Rises=F Damp=F
 DIIS: error= 1.07D-04 at cycle   7 NSaved=   7.
 NSaved= 7 IEnMin= 7 EnMin= -504.850402529637     IErMin= 7 ErrMin= 1.07D-04
 ErrMax= 1.07D-04 EMaxC= 1.00D-01 BMatC= 3.58D-05 BMatP= 3.86D-04
 IDIUse=3 WtCom= 9.99D-01 WtEn= 1.07D-03
 Coeff-Com: -0.210D-02 0.347D-02-0.225D-01-0.210D-01 0.174D-01 0.238D+00
 Coeff-Com:  0.787D+00
 Coeff-En:   0.000D+00 0.000D+00 0.000D+00 0.000D+00 0.000D+00 0.000D+00
 Coeff-En:   0.100D+01
 Coeff:     -0.209D-02 0.347D-02-0.225D-01-0.210D-01 0.174D-01 0.238D+00
 Coeff:      0.787D+00
 Gap=     0.166 Goal=   None    Shift=    0.000
 Gap=     0.222 Goal=   None    Shift=    0.000
 RMSDP=6.33D-05 MaxDP=1.14D-02 DE=-1.07D-04 OVMax= 1.87D-03

 Cycle   8  Pass 1  IDiag  1:
 RMSU=  3.08D-05    CP:  5.18D-01  2.86D+00  9.66D-01  8.70D-01  1.01D+00
                    CP:  1.06D+00  9.63D-01
 E= -504.850415236310     Delta-E=       -0.000012706673 Rises=F Damp=F
 DIIS: error= 6.02D-05 at cycle   8 NSaved=   8.
 NSaved= 8 IEnMin= 8 EnMin= -504.850415236310     IErMin= 8 ErrMin= 6.02D-05
 ErrMax= 6.02D-05 EMaxC= 1.00D-01 BMatC= 5.06D-06 BMatP= 3.58D-05
 IDIUse=1 WtCom= 1.00D+00 WtEn= 0.00D+00
 Coeff-Com: -0.196D-02 0.398D-02-0.126D-02-0.840D-02-0.338D-01-0.724D-02
 Coeff-Com:  0.239D+00 0.810D+00
 Coeff:     -0.196D-02 0.398D-02-0.126D-02-0.840D-02-0.338D-01-0.724D-02
 Coeff:      0.239D+00 0.810D+00
 Gap=     0.166 Goal=   None    Shift=    0.000
 Gap=     0.222 Goal=   None    Shift=    0.000
 RMSDP=2.95D-05 MaxDP=5.84D-03 DE=-1.27D-05 OVMax= 1.10D-03

 Cycle   9  Pass 1  IDiag  1:
 RMSU=  1.31D-05    CP:  5.18D-01  2.86D+00  9.65D-01  8.68D-01  1.01D+00
                    CP:  1.09D+00  1.05D+00  1.05D+00
 E= -504.850417696275     Delta-E=       -0.000002459965 Rises=F Damp=F
 DIIS: error= 3.61D-05 at cycle   9 NSaved=   9.
 NSaved= 9 IEnMin= 9 EnMin= -504.850417696275     IErMin= 9 ErrMin= 3.61D-05
 ErrMax= 3.61D-05 EMaxC= 1.00D-01 BMatC= 1.77D-06 BMatP= 5.06D-06
 IDIUse=1 WtCom= 1.00D+00 WtEn= 0.00D+00
 Coeff-Com: -0.561D-04 0.184D-03 0.379D-02 0.723D-03-0.177D-01-0.600D-01
 Coeff-Com: -0.913D-01 0.389D+00 0.776D+00
 Coeff:     -0.561D-04 0.184D-03 0.379D-02 0.723D-03-0.177D-01-0.600D-01
 Coeff:     -0.913D-01 0.389D+00 0.776D+00
 Gap=     0.166 Goal=   None    Shift=    0.000
 Gap=     0.222 Goal=   None    Shift=    0.000
 RMSDP=1.50D-05 MaxDP=2.85D-03 DE=-2.46D-06 OVMax= 7.67D-04

 Cycle  10  Pass 1  IDiag  1:
 RMSU=  5.69D-06    CP:  5.18D-01  2.86D+00  9.65D-01  8.68D-01  1.01D+00
                    CP:  1.09D+00  1.05D+00  1.22D+00  1.15D+00
 E= -504.850418626715     Delta-E=       -0.000000930440 Rises=F Damp=F
 DIIS: error= 1.58D-05 at cycle  10 NSaved=  10.
 NSaved=10 IEnMin=10 EnMin= -504.850418626715     IErMin=10 ErrMin= 1.58D-05
 ErrMax= 1.58D-05 EMaxC= 1.00D-01 BMatC= 2.52D-07 BMatP= 1.77D-06
 IDIUse=1 WtCom= 1.00D+00 WtEn= 0.00D+00
 Coeff-Com:  0.231D-03-0.401D-03 0.176D-02 0.180D-02-0.119D-02-0.205D-01
 Coeff-Com: -0.744D-01-0.775D-02 0.287D+00 0.814D+00
 Coeff:      0.231D-03-0.401D-03 0.176D-02 0.180D-02-0.119D-02-0.205D-01
 Coeff:     -0.744D-01-0.775D-02 0.287D+00 0.814D+00
 Gap=     0.166 Goal=   None    Shift=    0.000
 Gap=     0.222 Goal=   None    Shift=    0.000
 RMSDP=7.70D-06 MaxDP=1.08D-03 DE=-9.30D-07 OVMax= 3.78D-04

 Cycle  11  Pass 1  IDiag  1:
 RMSU=  3.96D-06    CP:  5.18D-01  2.86D+00  9.65D-01  8.69D-01  1.02D+00
                    CP:  1.09D+00  1.08D+00  1.27D+00  1.19D+00  1.36D+00
 E= -504.850418804295     Delta-E=       -0.000000177580 Rises=F Damp=F
 DIIS: error= 6.09D-06 at cycle  11 NSaved=  11.
 NSaved=11 IEnMin=11 EnMin= -504.850418804295     IErMin=11 ErrMin= 6.09D-06
 ErrMax= 6.09D-06 EMaxC= 1.00D-01 BMatC= 4.28D-08 BMatP= 2.52D-07
 IDIUse=1 WtCom= 1.00D+00 WtEn= 0.00D+00
 Coeff-Com:  0.964D-04-0.178D-03-0.314D-03 0.419D-03 0.370D-02 0.812D-02
 Coeff-Com:  0.162D-03-0.914D-01-0.972D-01 0.222D+00 0.954D+00
 Coeff:      0.964D-04-0.178D-03-0.314D-03 0.419D-03 0.370D-02 0.812D-02
 Coeff:      0.162D-03-0.914D-01-0.972D-01 0.222D+00 0.954D+00
 Gap=     0.166 Goal=   None    Shift=    0.000
 Gap=     0.222 Goal=   None    Shift=    0.000
 RMSDP=3.25D-06 MaxDP=4.07D-04 DE=-1.78D-07 OVMax= 2.09D-04

 Cycle  12  Pass 1  IDiag  1:
 RMSU=  6.84D-07    CP:  5.18D-01  2.86D+00  9.64D-01  8.69D-01  1.02D+00
                    CP:  1.09D+00  1.08D+00  1.28D+00  1.30D+00  1.59D+00
                    CP:  1.08D+00
 E= -504.850418843059     Delta-E=       -0.000000038764 Rises=F Damp=F
 DIIS: error= 1.86D-06 at cycle  12 NSaved=  12.
 NSaved=12 IEnMin=12 EnMin= -504.850418843059     IErMin=12 ErrMin= 1.86D-06
 ErrMax= 1.86D-06 EMaxC= 1.00D-01 BMatC= 8.07D-09 BMatP= 4.28D-08
 IDIUse=1 WtCom= 1.00D+00 WtEn= 0.00D+00
 Coeff-Com: -0.863D-05 0.727D-05-0.387D-03-0.138D-03 0.152D-02 0.604D-02
 Coeff-Com:  0.116D-01-0.313D-01-0.788D-01-0.499D-01 0.333D+00 0.809D+00
 Coeff:     -0.863D-05 0.727D-05-0.387D-03-0.138D-03 0.152D-02 0.604D-02
 Coeff:      0.116D-01-0.313D-01-0.788D-01-0.499D-01 0.333D+00 0.809D+00
 Gap=     0.166 Goal=   None    Shift=    0.000
 Gap=     0.222 Goal=   None    Shift=    0.000
 RMSDP=1.19D-06 MaxDP=1.17D-04 DE=-3.88D-08 OVMax= 6.42D-05

 Cycle  13  Pass 1  IDiag  1:
 RMSU=  4.12D-07    CP:  5.18D-01  2.86D+00  9.64D-01  8.69D-01  1.02D+00
                    CP:  1.09D+00  1.08D+00  1.29D+00  1.30D+00  1.67D+00
                    CP:  1.18D+00  1.10D+00
 E= -504.850418847848     Delta-E=       -0.000000004788 Rises=F Damp=F
 DIIS: error= 8.81D-07 at cycle  13 NSaved=  13.
 NSaved=13 IEnMin=13 EnMin= -504.850418847848     IErMin=13 ErrMin= 8.81D-07
 ErrMax= 8.81D-07 EMaxC= 1.00D-01 BMatC= 2.12D-09 BMatP= 8.07D-09
 IDIUse=1 WtCom= 1.00D+00 WtEn= 0.00D+00
 Coeff-Com: -0.291D-04 0.460D-04-0.134D-03-0.145D-03 0.118D-03 0.149D-02
 Coeff-Com:  0.578D-02 0.185D-02-0.205D-01-0.676D-01-0.206D-01 0.380D+00
 Coeff-Com:  0.720D+00
 Coeff:     -0.291D-04 0.460D-04-0.134D-03-0.145D-03 0.118D-03 0.149D-02
 Coeff:      0.578D-02 0.185D-02-0.205D-01-0.676D-01-0.206D-01 0.380D+00
 Coeff:      0.720D+00
 Gap=     0.166 Goal=   None    Shift=    0.000
 Gap=     0.222 Goal=   None    Shift=    0.000
 RMSDP=4.56D-07 MaxDP=5.14D-05 DE=-4.79D-09 OVMax= 1.94D-05

 Cycle  14  Pass 1  IDiag  1:
 RMSU=  1.83D-07    CP:  5.18D-01  2.86D+00  9.64D-01  8.69D-01  1.02D+00
                    CP:  1.09D+00  1.08D+00  1.29D+00  1.30D+00  1.69D+00
                    CP:  1.21D+00  1.21D+00  8.30D-01
 E= -504.850418848726     Delta-E=       -0.000000000879 Rises=F Damp=F
 DIIS: error= 3.13D-07 at cycle  14 NSaved=  14.
 NSaved=14 IEnMin=14 EnMin= -504.850418848726     IErMin=14 ErrMin= 3.13D-07
 ErrMax= 3.13D-07 EMaxC= 1.00D-01 BMatC= 2.03D-10 BMatP= 2.12D-09
 IDIUse=1 WtCom= 1.00D+00 WtEn= 0.00D+00
 Coeff-Com: -0.790D-05 0.128D-04 0.210D-04-0.243D-04-0.227D-03-0.549D-03
 Coeff-Com: -0.237D-04 0.594D-02 0.646D-02-0.135D-01-0.624D-01-0.133D-01
 Coeff-Com:  0.233D+00 0.845D+00
 Coeff:     -0.790D-05 0.128D-04 0.210D-04-0.243D-04-0.227D-03-0.549D-03
 Coeff:     -0.237D-04 0.594D-02 0.646D-02-0.135D-01-0.624D-01-0.133D-01
 Coeff:      0.233D+00 0.845D+00
 Gap=     0.166 Goal=   None    Shift=    0.000
 Gap=     0.222 Goal=   None    Shift=    0.000
 RMSDP=1.56D-07 MaxDP=1.72D-05 DE=-8.79D-10 OVMax= 4.51D-06

 Cycle  15  Pass 1  IDiag  1:
 RMSU=  7.39D-08    CP:  5.18D-01  2.86D+00  9.64D-01  8.69D-01  1.02D+00
                    CP:  1.09D+00  1.08D+00  1.29D+00  1.31D+00  1.68D+00
                    CP:  1.20D+00  1.22D+00  8.79D-01  8.24D-01
 E= -504.850418848827     Delta-E=       -0.000000000100 Rises=F Damp=F
 DIIS: error= 1.10D-07 at cycle  15 NSaved=  15.
 NSaved=15 IEnMin=15 EnMin= -504.850418848827     IErMin=15 ErrMin= 1.10D-07
 ErrMax= 1.10D-07 EMaxC= 1.00D-01 BMatC= 2.57D-11 BMatP= 2.03D-10
 IDIUse=1 WtCom= 1.00D+00 WtEn= 0.00D+00
 Coeff-Com:  0.158D-06 0.370D-06 0.175D-04 0.563D-05-0.913D-04-0.301D-03
 Coeff-Com: -0.524D-03 0.157D-02 0.384D-02 0.301D-02-0.163D-01-0.446D-01
 Coeff-Com: -0.704D-02 0.268D+00 0.793D+00
 Coeff:      0.158D-06 0.370D-06 0.175D-04 0.563D-05-0.913D-04-0.301D-03
 Coeff:     -0.524D-03 0.157D-02 0.384D-02 0.301D-02-0.163D-01-0.446D-01
 Coeff:     -0.704D-02 0.268D+00 0.793D+00
 Gap=     0.166 Goal=   None    Shift=    0.000
 Gap=     0.222 Goal=   None    Shift=    0.000
 RMSDP=5.21D-08 MaxDP=6.85D-06 DE=-1.00D-10 OVMax= 9.33D-07

 Cycle  16  Pass 1  IDiag  1:
 RMSU=  1.87D-08    CP:  5.18D-01  2.86D+00  9.64D-01  8.69D-01  1.02D+00
                    CP:  1.09D+00  1.08D+00  1.29D+00  1.31D+00  1.68D+00
                    CP:  1.20D+00  1.22D+00  8.88D-01  9.17D-01  1.05D+00
 E= -504.850418848834     Delta-E=       -0.000000000007 Rises=F Damp=F
 DIIS: error= 5.68D-08 at cycle  16 NSaved=  16.
 NSaved=16 IEnMin=16 EnMin= -504.850418848834     IErMin=16 ErrMin= 5.68D-08
 ErrMax= 5.68D-08 EMaxC= 1.00D-01 BMatC= 5.83D-12 BMatP= 2.57D-11
 IDIUse=1 WtCom= 1.00D+00 WtEn= 0.00D+00
 Coeff-Com:  0.121D-05-0.161D-05 0.305D-05 0.582D-05-0.251D-05-0.254D-04
 Coeff-Com: -0.184D-03-0.353D-03 0.387D-03 0.336D-02 0.430D-02-0.152D-01
 Coeff-Com: -0.434D-01-0.384D-01 0.314D+00 0.776D+00
 Coeff:      0.121D-05-0.161D-05 0.305D-05 0.582D-05-0.251D-05-0.254D-04
 Coeff:     -0.184D-03-0.353D-03 0.387D-03 0.336D-02 0.430D-02-0.152D-01
 Coeff:     -0.434D-01-0.384D-01 0.314D+00 0.776D+00
 Gap=     0.166 Goal=   None    Shift=    0.000
 Gap=     0.222 Goal=   None    Shift=    0.000
 RMSDP=2.10D-08 MaxDP=3.16D-06 DE=-7.05D-12 OVMax= 6.75D-07

 Cycle  17  Pass 1  IDiag  1:
 RMSU=  7.19D-09    CP:  5.18D-01  2.86D+00  9.64D-01  8.69D-01  1.02D+00
                    CP:  1.09D+00  1.08D+00  1.29D+00  1.31D+00  1.68D+00
                    CP:  1.20D+00  1.22D+00  8.84D-01  9.49D-01  1.11D+00
                    CP:  1.07D+00
 E= -504.850418848839     Delta-E=       -0.000000000006 Rises=F Damp=F
 DIIS: error= 2.65D-08 at cycle  17 NSaved=  17.
 NSaved=17 IEnMin=17 EnMin= -504.850418848839     IErMin=17 ErrMin= 2.65D-08
 ErrMax= 2.65D-08 EMaxC= 1.00D-01 BMatC= 9.27D-13 BMatP= 5.83D-12
 IDIUse=1 WtCom= 1.00D+00 WtEn= 0.00D+00
 Coeff-Com:  0.161D-06-0.295D-06-0.251D-05 0.684D-07 0.182D-04 0.516D-04
 Coeff-Com:  0.493D-04-0.387D-03-0.641D-03 0.294D-03 0.432D-02 0.479D-02
 Coeff-Com: -0.102D-01-0.648D-01-0.723D-01 0.224D+00 0.915D+00
 Coeff:      0.161D-06-0.295D-06-0.251D-05 0.684D-07 0.182D-04 0.516D-04
 Coeff:      0.493D-04-0.387D-03-0.641D-03 0.294D-03 0.432D-02 0.479D-02
 Coeff:     -0.102D-01-0.648D-01-0.723D-01 0.224D+00 0.915D+00
 Gap=     0.166 Goal=   None    Shift=    0.000
 Gap=     0.222 Goal=   None    Shift=    0.000
 RMSDP=1.24D-08 MaxDP=2.06D-06 DE=-5.68D-12 OVMax= 5.00D-07

 Cycle  18  Pass 1  IDiag  1:
 RMSU=  3.74D-09    CP:  5.18D-01  2.86D+00  9.64D-01  8.69D-01  1.02D+00
                    CP:  1.09D+00  1.08D+00  1.29D+00  1.31D+00  1.68D+00
                    CP:  1.20D+00  1.22D+00  8.84D-01  9.45D-01  1.16D+00
                    CP:  1.13D+00  1.05D+00
 E= -504.850418848836     Delta-E=        0.000000000003 Rises=F Damp=F
 DIIS: error= 9.49D-09 at cycle  18 NSaved=  18.
 NSaved=18 IEnMin=17 EnMin= -504.850418848839     IErMin=18 ErrMin= 9.49D-09
 ErrMax= 9.49D-09 EMaxC= 1.00D-01 BMatC= 1.55D-13 BMatP= 9.27D-13
 IDIUse=1 WtCom= 1.00D+00 WtEn= 0.00D+00
 Coeff-Com: -0.214D-06 0.268D-06-0.944D-06-0.994D-06 0.517D-05 0.149D-04
 Coeff-Com:  0.368D-04-0.253D-04-0.198D-03-0.476D-03 0.217D-03 0.372D-02
 Coeff-Com:  0.497D-02-0.928D-02-0.704D-01-0.768D-01 0.228D+00 0.920D+00
 Coeff:     -0.214D-06 0.268D-06-0.944D-06-0.994D-06 0.517D-05 0.149D-04
 Coeff:      0.368D-04-0.253D-04-0.198D-03-0.476D-03 0.217D-03 0.372D-02
 Coeff:      0.497D-02-0.928D-02-0.704D-01-0.768D-01 0.228D+00 0.920D+00
 Gap=     0.166 Goal=   None    Shift=    0.000
 Gap=     0.222 Goal=   None    Shift=    0.000
 RMSDP=5.98D-09 MaxDP=1.00D-06 DE= 3.18D-12 OVMax= 2.75D-07

 Cycle  19  Pass 1  IDiag  1:
 RMSU=  1.59D-09    CP:  5.18D-01  2.86D+00  9.64D-01  8.69D-01  1.02D+00
                    CP:  1.09D+00  1.08D+00  1.29D+00  1.31D+00  1.68D+00
                    CP:  1.20D+00  1.22D+00  8.83D-01  9.47D-01  1.16D+00
                    CP:  1.19D+00  1.22D+00  1.13D+00
 E= -504.850418848833     Delta-E=        0.000000000003 Rises=F Damp=F
 DIIS: error= 5.55D-09 at cycle  19 NSaved=  19.
 NSaved=19 IEnMin=17 EnMin= -504.850418848839     IErMin=19 ErrMin= 5.55D-09
 ErrMax= 5.55D-09 EMaxC= 1.00D-01 BMatC= 4.75D-14 BMatP= 1.55D-13
 IDIUse=1 WtCom= 1.00D+00 WtEn= 0.00D+00
 Coeff-Com: -0.114D-06 0.150D-06-0.179D-07-0.429D-06-0.904D-06-0.232D-05
 Coeff-Com:  0.886D-05 0.572D-04 0.253D-04-0.273D-03-0.685D-03 0.800D-03
 Coeff-Com:  0.405D-02 0.769D-02-0.175D-01-0.756D-01-0.712D-01 0.411D+00
 Coeff-Com:  0.741D+00
 Coeff:     -0.114D-06 0.150D-06-0.179D-07-0.429D-06-0.904D-06-0.232D-05
 Coeff:      0.886D-05 0.572D-04 0.253D-04-0.273D-03-0.685D-03 0.800D-03
 Coeff:      0.405D-02 0.769D-02-0.175D-01-0.756D-01-0.712D-01 0.411D+00
 Coeff:      0.741D+00
 Gap=     0.166 Goal=   None    Shift=    0.000
 Gap=     0.222 Goal=   None    Shift=    0.000
 RMSDP=2.53D-09 MaxDP=3.82D-07 DE= 3.41D-12 OVMax= 1.12D-07

 SCF Done:  E(UB3LYP) =  -504.850418849     A.U. after   19 cycles
             Convg  =    0.2530D-08             -V/T =  2.0045
 <Sx>= 0.0000 <Sy>= 0.0000 <Sz>= 0.5000 <S**2>= 0.7540 S= 0.5020
 <L.S>= 0.000000000000E+00
 KE= 5.026024584744D+02 PE=-2.463328562253D+03 EE= 8.123610940039D+02
 Annihilation of the first spin contaminant:
 S**2 before annihilation     0.7540,   after     0.7500
 Leave Link  502 at Fri Feb  7 19:23:38 2014, MaxMem= 4026531840 cpu:    3245.8
 (Enter /usr/caen/gaussian-09revc/g09/l601.exe)
 Copying SCF densities to generalized density rwf, IOpCl= 1 IROHF=0.

 **********************************************************************

            Population analysis using the SCF density.

 **********************************************************************

 Orbital symmetries:
 Alpha Orbitals:
       Occupied  (A) (A) (A) (A) (A) (A) (A) (A) (A) (A) (A) (A)
                 (A) (A) (A) (A) (A) (A) (A) (A) (A) (A) (A) (A)
                 (A) (A) (A) (A) (A) (A) (A) (A) (A) (A) (A) (A)
                 (A) (A) (A) (A) (A) (A) (A) (A) (A)
       Virtual   (A) (A) (A) (A) (A) (A) (A) (A) (A) (A) (A) (A)
                 (A) (A) (A) (A) (A) (A) (A) (A) (A) (A) (A) (A)
                 (A) (A) (A) (A) (A) (A) (A) (A) (A) (A) (A) (A)
                 (A) (A) (A) (A) (A) (A) (A) (A) (A) (A) (A) (A)
                 (A) (A) (A) (A) (A) (A) (A) (A) (A) (A) (A) (A)
                 (A) (A) (A) (A) (A) (A) (A) (A) (A) (A) (A) (A)
                 (A) (A) (A) (A) (A) (A) (A) (A) (A) (A) (A) (A)
                 (A) (A) (A) (A) (A) (A) (A) (A) (A) (A) (A) (A)
                 (A) (A) (A) (A) (A) (A) (A) (A) (A) (A) (A) (A)
                 (A) (A) (A) (A) (A) (A) (A) (A) (A) (A) (A) (A)
                 (A) (A) (A) (A) (A) (A) (A) (A) (A) (A) (A) (A)
                 (A) (A) (A) (A) (A) (A) (A) (A) (A) (A) (A) (A)
                 (A) (A) (A) (A) (A) (A) (A) (A) (A) (A) (A) (A)
                 (A) (A) (A) (A) (A) (A) (A) (A) (A) (A) (A) (A)
                 (A) (A) (A) (A) (A) (A) (A) (A) (A) (A) (A) (A)
                 (A) (A) (A) (A) (A) (A) (A) (A) (A) (A) (A) (A)
                 (A) (A) (A) (A) (A) (A) (A) (A) (A) (A) (A) (A)
                 (A) (A) (A) (A) (A) (A) (A) (A) (A) (A) (A) (A)
                 (A) (A) (A) (A) (A) (A) (A) (A) (A) (A) (A) (A)
                 (A) (A) (A) (A) (A) (A) (A) (A) (A) (A) (A) (A)
                 (A) (A) (A) (A) (A) (A) (A) (A) (A) (A) (A) (A)
                 (A) (A) (A) (A) (A) (A) (A) (A) (A) (A) (A) (A)
                 (A) (A) (A) (A) (A) (A) (A) (A) (A) (A) (A) (A)
                 (A) (A) (A) (A) (A) (A) (A) (A) (A) (A) (A) (A)
                 (A) (A) (A) (A) (A) (A) (A) (A) (A) (A) (A) (A)
                 (A) (A) (A) (A) (A) (A) (A) (A) (A) (A) (A) (A)
                 (A) (A) (A) (A) (A) (A) (A) (A) (A) (A) (A) (A)
                 (A) (A) (A) (A) (A) (A)
 Beta  Orbitals:
       Occupied  (A) (A) (A) (A) (A) (A) (A) (A) (A) (A) (A) (A)
                 (A) (A) (A) (A) (A) (A) (A) (A) (A) (A) (A) (A)
                 (A) (A) (A) (A) (A) (A) (A) (A) (A) (A) (A) (A)
                 (A) (A) (A) (A) (A) (A) (A) (A)
       Virtual   (A) (A) (A) (A) (A) (A) (A) (A) (A) (A) (A) (A)
                 (A) (A) (A) (A) (A) (A) (A) (A) (A) (A) (A) (A)
                 (A) (A) (A) (A) (A) (A) (A) (A) (A) (A) (A) (A)
                 (A) (A) (A) (A) (A) (A) (A) (A) (A) (A) (A) (A)
                 (A) (A) (A) (A) (A) (A) (A) (A) (A) (A) (A) (A)
                 (A) (A) (A) (A) (A) (A) (A) (A) (A) (A) (A) (A)
                 (A) (A) (A) (A) (A) (A) (A) (A) (A) (A) (A) (A)
                 (A) (A) (A) (A) (A) (A) (A) (A) (A) (A) (A) (A)
                 (A) (A) (A) (A) (A) (A) (A) (A) (A) (A) (A) (A)
                 (A) (A) (A) (A) (A) (A) (A) (A) (A) (A) (A) (A)
                 (A) (A) (A) (A) (A) (A) (A) (A) (A) (A) (A) (A)
                 (A) (A) (A) (A) (A) (A) (A) (A) (A) (A) (A) (A)
                 (A) (A) (A) (A) (A) (A) (A) (A) (A) (A) (A) (A)
                 (A) (A) (A) (A) (A) (A) (A) (A) (A) (A) (A) (A)
                 (A) (A) (A) (A) (A) (A) (A) (A) (A) (A) (A) (A)
                 (A) (A) (A) (A) (A) (A) (A) (A) (A) (A) (A) (A)
                 (A) (A) (A) (A) (A) (A) (A) (A) (A) (A) (A) (A)
                 (A) (A) (A) (A) (A) (A) (A) (A) (A) (A) (A) (A)
                 (A) (A) (A) (A) (A) (A) (A) (A) (A) (A) (A) (A)
                 (A) (A) (A) (A) (A) (A) (A) (A) (A) (A) (A) (A)
                 (A) (A) (A) (A) (A) (A) (A) (A) (A) (A) (A) (A)
                 (A) (A) (A) (A) (A) (A) (A) (A) (A) (A) (A) (A)
                 (A) (A) (A) (A) (A) (A) (A) (A) (A) (A) (A) (A)
                 (A) (A) (A) (A) (A) (A) (A) (A) (A) (A) (A) (A)
                 (A) (A) (A) (A) (A) (A) (A) (A) (A) (A) (A) (A)
                 (A) (A) (A) (A) (A) (A) (A) (A) (A) (A) (A) (A)
                 (A) (A) (A) (A) (A) (A) (A) (A) (A) (A) (A) (A)
                 (A) (A) (A) (A) (A) (A) (A)
 The electronic state is 2-A.
 Alpha  occ. eigenvalues --  -19.18570 -19.18302 -10.22652 -10.18077 -10.17192
 Alpha  occ. eigenvalues --  -10.16824 -10.16543 -10.16083 -10.15617 -10.15522
 Alpha  occ. eigenvalues --  -10.15489  -1.12504  -0.92703  -0.81987  -0.79988
 Alpha  occ. eigenvalues --   -0.74839  -0.68275  -0.67946  -0.66799  -0.60672
 Alpha  occ. eigenvalues --   -0.56193  -0.55592  -0.53133  -0.49250  -0.47196
 Alpha  occ. eigenvalues --   -0.46932  -0.44926  -0.43795  -0.43513  -0.42194
 Alpha  occ. eigenvalues --   -0.40802  -0.39892  -0.38371  -0.37699  -0.36966
 Alpha  occ. eigenvalues --   -0.36122  -0.35441  -0.34809  -0.33996  -0.32652
 Alpha  occ. eigenvalues --   -0.32091  -0.31761  -0.31276  -0.27175  -0.18375
 Alpha virt. eigenvalues --   -0.01750  -0.00628  -0.00107   0.00650   0.00670
 Alpha virt. eigenvalues --    0.01736   0.02156   0.02313   0.03498   0.03728
 Alpha virt. eigenvalues --    0.04130   0.04242   0.05305   0.05695   0.05900
 Alpha virt. eigenvalues --    0.06615   0.06944   0.07539   0.08175   0.08727
 Alpha virt. eigenvalues --    0.09019   0.09493   0.09821   0.10438   0.10964
 Alpha virt. eigenvalues --    0.11519   0.11875   0.12138   0.12448   0.12905
 Alpha virt. eigenvalues --    0.13133   0.13641   0.13847   0.14079   0.14356
 Alpha virt. eigenvalues --    0.14459   0.14693   0.15152   0.15232   0.15550
 Alpha virt. eigenvalues --    0.15898   0.16328   0.16419   0.17236   0.17445
 Alpha virt. eigenvalues --    0.17666   0.17853   0.18177   0.18729   0.18888
 Alpha virt. eigenvalues --    0.19034   0.19410   0.19779   0.20332   0.20886
 Alpha virt. eigenvalues --    0.21489   0.22189   0.22593   0.22957   0.23193
 Alpha virt. eigenvalues --    0.23748   0.24356   0.24758   0.25375   0.25743
 Alpha virt. eigenvalues --    0.26409   0.26692   0.27130   0.27689   0.28064
 Alpha virt. eigenvalues --    0.28633   0.29337   0.30332   0.31293   0.31649
 Alpha virt. eigenvalues --    0.32693   0.32938   0.33210   0.33350   0.33951
 Alpha virt. eigenvalues --    0.34723   0.35399   0.35978   0.36164   0.36410
 Alpha virt. eigenvalues --    0.37060   0.38301   0.38871   0.39447   0.40718
 Alpha virt. eigenvalues --    0.42609   0.44163   0.45406   0.46028   0.47274
 Alpha virt. eigenvalues --    0.47699   0.50283   0.50689   0.52392   0.53659
 Alpha virt. eigenvalues --    0.54482   0.55277   0.55942   0.56485   0.56629
 Alpha virt. eigenvalues --    0.57888   0.59883   0.60659   0.61019   0.62470
 Alpha virt. eigenvalues --    0.64018   0.64834   0.65031   0.66376   0.66604
 Alpha virt. eigenvalues --    0.67879   0.67910   0.68791   0.69202   0.69574
 Alpha virt. eigenvalues --    0.69999   0.70978   0.72297   0.72668   0.73166
 Alpha virt. eigenvalues --    0.74236   0.74485   0.74688   0.75825   0.77014
 Alpha virt. eigenvalues --    0.78008   0.78115   0.78688   0.79592   0.81091
 Alpha virt. eigenvalues --    0.82268   0.85715   0.85987   0.88889   0.90158
 Alpha virt. eigenvalues --    0.95343   0.96405   0.97506   0.99028   1.01123
 Alpha virt. eigenvalues --    1.03317   1.04966   1.05735   1.07656   1.09958
 Alpha virt. eigenvalues --    1.10526   1.13054   1.13958   1.14964   1.17372
 Alpha virt. eigenvalues --    1.18414   1.18957   1.20777   1.24522   1.26269
 Alpha virt. eigenvalues --    1.29765   1.31882   1.33917   1.35285   1.40270
 Alpha virt. eigenvalues --    1.42256   1.44500   1.45766   1.46702   1.47543
 Alpha virt. eigenvalues --    1.48378   1.49444   1.50147   1.51163   1.53216
 Alpha virt. eigenvalues --    1.54248   1.55924   1.57455   1.58106   1.58824
 Alpha virt. eigenvalues --    1.59359   1.59915   1.60800   1.61722   1.62110
 Alpha virt. eigenvalues --    1.63088   1.63926   1.64905   1.65596   1.66061
 Alpha virt. eigenvalues --    1.66693   1.67875   1.68811   1.69515   1.72037
 Alpha virt. eigenvalues --    1.72909   1.73897   1.74801   1.75512   1.76249
 Alpha virt. eigenvalues --    1.77677   1.78270   1.80148   1.81058   1.82216
 Alpha virt. eigenvalues --    1.83931   1.86100   1.87166   1.89904   1.93385
 Alpha virt. eigenvalues --    1.94116   1.96354   1.97873   2.00282   2.02859
 Alpha virt. eigenvalues --    2.03522   2.06374   2.06553   2.09033   2.09569
 Alpha virt. eigenvalues --    2.10509   2.13271   2.15135   2.15936   2.18231
 Alpha virt. eigenvalues --    2.21697   2.23215   2.25422   2.27186   2.30449
 Alpha virt. eigenvalues --    2.30807   2.33133   2.35895   2.36952   2.38032
 Alpha virt. eigenvalues --    2.41919   2.42782   2.44622   2.47083   2.48641
 Alpha virt. eigenvalues --    2.49804   2.50146   2.50614   2.50899   2.52679
 Alpha virt. eigenvalues --    2.53525   2.55210   2.55669   2.56649   2.57778
 Alpha virt. eigenvalues --    2.58739   2.60120   2.60417   2.61857   2.62270
 Alpha virt. eigenvalues --    2.63783   2.65492   2.66783   2.68265   2.70603
 Alpha virt. eigenvalues --    2.72134   2.72996   2.73998   2.76080   2.76522
 Alpha virt. eigenvalues --    2.77086   2.78794   2.79853   2.82347   2.83262
 Alpha virt. eigenvalues --    2.86852   2.89433   2.91313   2.94005   2.95965
 Alpha virt. eigenvalues --    2.96382   2.97078   2.97860   3.01008   3.01721
 Alpha virt. eigenvalues --    3.03740   3.07880   3.08989   3.11114   3.12778
 Alpha virt. eigenvalues --    3.15842   3.17750   3.22322   3.25879   3.34279
 Alpha virt. eigenvalues --    3.41200   3.49648   3.53096   3.70189   3.78649
 Alpha virt. eigenvalues --    3.78732   3.79334   3.81170   3.82095   3.82747
 Alpha virt. eigenvalues --    3.83696   3.84594   3.87417   3.89478   3.98228
 Alpha virt. eigenvalues --    3.99519   4.02338   4.08368   4.19057   4.27327
 Alpha virt. eigenvalues --    4.30389   4.31935   4.42812   4.87670   4.99716
 Alpha virt. eigenvalues --    5.07964   5.38975   5.53981   5.65245  23.81875
 Alpha virt. eigenvalues --   23.83566  23.85113  23.89244  23.90649  23.93712
 Alpha virt. eigenvalues --   23.98155  23.98866  23.99756  49.85327  49.88358
  Beta  occ. eigenvalues --  -19.18562 -19.18283 -10.22520 -10.18163 -10.17191
  Beta  occ. eigenvalues --  -10.16623 -10.16054 -10.15595 -10.15518 -10.15488
  Beta  occ. eigenvalues --  -10.15443  -1.12481  -0.92642  -0.81490  -0.79478
  Beta  occ. eigenvalues --   -0.74496  -0.68265  -0.67785  -0.65798  -0.60365
  Beta  occ. eigenvalues --   -0.55819  -0.54755  -0.52993  -0.49042  -0.46935
  Beta  occ. eigenvalues --   -0.46675  -0.44607  -0.43615  -0.43328  -0.41834
  Beta  occ. eigenvalues --   -0.40584  -0.39666  -0.38349  -0.37454  -0.36706
  Beta  occ. eigenvalues --   -0.35955  -0.35253  -0.34576  -0.33664  -0.32435
  Beta  occ. eigenvalues --   -0.32044  -0.31586  -0.31011  -0.26905
  Beta virt. eigenvalues --   -0.04696  -0.01719  -0.00616  -0.00050   0.00664
  Beta virt. eigenvalues --    0.00715   0.01740   0.02260   0.02314   0.03526
  Beta virt. eigenvalues --    0.03761   0.04175   0.04269   0.05323   0.05719
  Beta virt. eigenvalues --    0.05903   0.06703   0.06935   0.07592   0.08203
  Beta virt. eigenvalues --    0.08769   0.09030   0.09531   0.09844   0.10440
  Beta virt. eigenvalues --    0.10989   0.11534   0.11952   0.12149   0.12455
  Beta virt. eigenvalues --    0.12952   0.13252   0.13677   0.13885   0.14178
  Beta virt. eigenvalues --    0.14370   0.14641   0.14867   0.15190   0.15284
  Beta virt. eigenvalues --    0.15568   0.15935   0.16382   0.16602   0.17290
  Beta virt. eigenvalues --    0.17499   0.17718   0.17942   0.18203   0.18766
  Beta virt. eigenvalues --    0.18999   0.19245   0.19484   0.19911   0.20404
  Beta virt. eigenvalues --    0.20963   0.21572   0.22297   0.22695   0.23192
  Beta virt. eigenvalues --    0.23225   0.23871   0.24475   0.24873   0.25545
  Beta virt. eigenvalues --    0.25834   0.26477   0.26885   0.27247   0.27853
  Beta virt. eigenvalues --    0.28305   0.28804   0.29446   0.30422   0.31403
  Beta virt. eigenvalues --    0.32056   0.32815   0.33175   0.33332   0.33576
  Beta virt. eigenvalues --    0.34278   0.34842   0.35582   0.36150   0.36205
  Beta virt. eigenvalues --    0.36554   0.37306   0.38422   0.39120   0.39668
  Beta virt. eigenvalues --    0.40785   0.42806   0.44367   0.45665   0.46113
  Beta virt. eigenvalues --    0.47400   0.47832   0.50351   0.50904   0.52437
  Beta virt. eigenvalues --    0.53868   0.54637   0.55437   0.56127   0.56673
  Beta virt. eigenvalues --    0.57010   0.57973   0.60054   0.60716   0.61238
  Beta virt. eigenvalues --    0.62676   0.64139   0.65056   0.65251   0.66484
  Beta virt. eigenvalues --    0.67092   0.67960   0.68665   0.69201   0.69486
  Beta virt. eigenvalues --    0.69775   0.70205   0.71411   0.72484   0.72800
  Beta virt. eigenvalues --    0.73398   0.74475   0.74709   0.75122   0.76011
  Beta virt. eigenvalues --    0.77458   0.78210   0.78418   0.79087   0.79720
  Beta virt. eigenvalues --    0.81252   0.82665   0.85875   0.86195   0.89162
  Beta virt. eigenvalues --    0.90954   0.95706   0.96583   0.98072   0.99335
  Beta virt. eigenvalues --    1.01216   1.03426   1.05197   1.06212   1.07811
  Beta virt. eigenvalues --    1.10176   1.10596   1.13183   1.14162   1.15181
  Beta virt. eigenvalues --    1.17701   1.18499   1.19006   1.20979   1.24695
  Beta virt. eigenvalues --    1.26735   1.30023   1.32795   1.34136   1.35906
  Beta virt. eigenvalues --    1.40388   1.42408   1.44778   1.45831   1.46797
  Beta virt. eigenvalues --    1.47576   1.48440   1.49563   1.50298   1.51853
  Beta virt. eigenvalues --    1.53643   1.54693   1.56361   1.57536   1.58298
  Beta virt. eigenvalues --    1.58972   1.59655   1.60058   1.60890   1.61885
  Beta virt. eigenvalues --    1.62268   1.63305   1.64098   1.64976   1.65871
  Beta virt. eigenvalues --    1.66446   1.67189   1.68117   1.69035   1.70426
  Beta virt. eigenvalues --    1.72261   1.73137   1.74050   1.75485   1.75797
  Beta virt. eigenvalues --    1.76481   1.77841   1.78399   1.80298   1.81533
  Beta virt. eigenvalues --    1.82312   1.84153   1.86314   1.87546   1.90428
  Beta virt. eigenvalues --    1.93754   1.95107   1.96899   1.98148   2.00540
  Beta virt. eigenvalues --    2.03308   2.03688   2.06563   2.06859   2.09164
  Beta virt. eigenvalues --    2.09993   2.10724   2.13357   2.15251   2.16223
  Beta virt. eigenvalues --    2.18804   2.21955   2.23613   2.25652   2.27491
  Beta virt. eigenvalues --    2.30760   2.30984   2.33493   2.36363   2.37120
  Beta virt. eigenvalues --    2.38265   2.42329   2.42895   2.44877   2.47152
  Beta virt. eigenvalues --    2.48801   2.49960   2.50217   2.50655   2.50947
  Beta virt. eigenvalues --    2.52754   2.53660   2.55249   2.55728   2.56814
  Beta virt. eigenvalues --    2.57980   2.58880   2.60270   2.60570   2.61966
  Beta virt. eigenvalues --    2.62462   2.63910   2.65577   2.67187   2.68403
  Beta virt. eigenvalues --    2.70796   2.72644   2.73178   2.74348   2.76209
  Beta virt. eigenvalues --    2.76627   2.77306   2.78856   2.80061   2.82582
  Beta virt. eigenvalues --    2.83441   2.86963   2.89659   2.91422   2.94196
  Beta virt. eigenvalues --    2.96133   2.96636   2.97382   2.98149   3.01732
  Beta virt. eigenvalues --    3.02629   3.05659   3.08129   3.09175   3.12141
  Beta virt. eigenvalues --    3.13027   3.15913   3.17785   3.22391   3.26149
  Beta virt. eigenvalues --    3.34353   3.41425   3.49939   3.53493   3.70247
  Beta virt. eigenvalues --    3.78656   3.78827   3.79459   3.81214   3.82132
  Beta virt. eigenvalues --    3.82784   3.83749   3.84767   3.87444   3.89650
  Beta virt. eigenvalues --    3.98647   3.99602   4.02672   4.08785   4.19433
  Beta virt. eigenvalues --    4.27613   4.30392   4.32315   4.43461   4.87690
  Beta virt. eigenvalues --    4.99732   5.08008   5.39001   5.54011   5.65263
  Beta virt. eigenvalues --   23.82212  23.83667  23.85490  23.89744  23.90826
  Beta virt. eigenvalues --   23.93829  23.98157  23.98871  23.99765  49.85344
  Beta virt. eigenvalues --   49.88371
          Condensed to atoms (all electrons):
              1          2          3          4          5          6
     1  C    6.049801   0.405488   0.398925   0.382400  -1.148729  -0.124000
     2  H    0.405488   0.564419  -0.034761  -0.027322  -0.089329  -0.013211
     3  H    0.398925  -0.034761   0.515011  -0.033405   0.112057   0.013694
     4  H    0.382400  -0.027322  -0.033405   0.587681  -0.024989  -0.012660
     5  C   -1.148729  -0.089329   0.112057  -0.024989  12.639785   0.735210
     6  H   -0.124000  -0.013211   0.013694  -0.012660   0.735210   0.651432
     7  C    0.955408   0.017783  -0.124939   0.019960  -5.861372  -0.324947
     8  H    0.002853  -0.005974   0.003333   0.000412  -0.090315   0.013129
     9  C   -0.317936   0.012932   0.014625   0.003382   1.345628   0.006985
    10  H   -0.000071  -0.000678  -0.000341  -0.000023  -0.178292   0.000177
    11  H    0.027907   0.002663   0.001342  -0.000388   0.118068  -0.000296
    12  C    0.068731  -0.000703  -0.002099  -0.002379  -0.801899  -0.006894
    13  H   -0.000688  -0.000246  -0.000001   0.000240   0.010020  -0.001093
    14  H   -0.001424  -0.000004   0.000358  -0.000051   0.007833   0.000641
    15  C    0.011608   0.003000   0.000186  -0.000250  -0.139827  -0.008796
    16  H    0.002607   0.000045   0.000052   0.000006   0.011719  -0.000703
    17  C   -0.000501   0.000103   0.000050  -0.000030   0.002132  -0.000085
    18  H    0.000098  -0.000013   0.000003  -0.000003  -0.000466   0.000033
    19  H    0.000055   0.000034  -0.000002  -0.000004  -0.001344  -0.000112
    20  H   -0.000259  -0.000001  -0.000017   0.000005   0.000634  -0.000025
    21  C   -0.148286   0.025353  -0.040009  -0.026064  -0.924423  -0.104829
    22  H   -0.047314   0.004758  -0.001893  -0.004560  -0.147483  -0.001152
    23  H    0.015343  -0.003202   0.000522   0.002938   0.125256   0.006152
    24  C   -0.003803   0.000083  -0.000154  -0.000083  -0.032927   0.000293
    25  H   -0.000140  -0.000002  -0.000006  -0.000001  -0.001665  -0.000027
    26  H    0.000376   0.000035   0.000006  -0.000003   0.001158  -0.000165
    27  H   -0.002189  -0.000151  -0.000032   0.000036  -0.005826   0.000667
    28  O    0.018800   0.001295  -0.002205  -0.002689  -0.083867   0.003189
    29  O   -0.007901   0.001766   0.002931  -0.001511  -0.129636  -0.005029
    30  H   -0.002551  -0.000653  -0.000157   0.000204   0.016319   0.000895
              7          8          9         10         11         12
     1  C    0.955408   0.002853  -0.317936  -0.000071   0.027907   0.068731
     2  H    0.017783  -0.005974   0.012932  -0.000678   0.002663  -0.000703
     3  H   -0.124939   0.003333   0.014625  -0.000341   0.001342  -0.002099
     4  H    0.019960   0.000412   0.003382  -0.000023  -0.000388  -0.002379
     5  C   -5.861372  -0.090315   1.345628  -0.178292   0.118068  -0.801899
     6  H   -0.324947   0.013129   0.006985   0.000177  -0.000296  -0.006894
     7  C   12.158789   0.451319  -2.280438   0.051578  -0.331440   1.064927
     8  H    0.451319   0.531703  -0.087153   0.013690  -0.017116   0.032163
     9  C   -2.280438  -0.087153   8.442429   0.476162   0.394325  -1.800748
    10  H    0.051578   0.013690   0.476162   0.698301  -0.170057  -0.072648
    11  H   -0.331440  -0.017116   0.394325  -0.170057   0.853677  -0.022080
    12  C    1.064927   0.032163  -1.800748  -0.072648  -0.022080   8.504638
    13  H   -0.033457   0.003140  -0.049089   0.017618  -0.021185   0.416350
    14  H   -0.021145  -0.003800  -0.064165  -0.026634   0.026023   0.449640
    15  C   -0.273551  -0.025620   0.359086   0.036405   0.061522  -1.473253
    16  H   -0.019846  -0.001227  -0.012561   0.009743   0.018910  -0.129081
    17  C   -0.076188  -0.002728  -0.193986  -0.012655   0.022590   0.369641
    18  H    0.003126   0.000610  -0.001410   0.001840   0.000736  -0.078920
    19  H   -0.003305  -0.000041   0.000169  -0.000153   0.001775   0.036743
    20  H   -0.002073  -0.000356   0.005252  -0.000929  -0.001261  -0.020849
    21  C    0.542231  -0.011597   0.272008   0.032140  -0.090330  -0.005264
    22  H    0.066608  -0.000386   0.011337   0.003738  -0.005289   0.002440
    23  H   -0.206292  -0.002869   0.056154  -0.009101   0.028840  -0.002627
    24  C    0.086286   0.000979   0.156651  -0.017148  -0.021764   0.042141
    25  H    0.004205   0.000405   0.006102  -0.000410  -0.003121   0.040461
    26  H   -0.016001  -0.000966   0.008727   0.003281   0.005871  -0.090005
    27  H    0.025057   0.001455   0.062420   0.002223  -0.027774  -0.053619
    28  O   -0.005782   0.001219  -0.020630  -0.000142   0.009077   0.022007
    29  O    0.152860  -0.020175  -0.075792  -0.005999   0.048049   0.045898
    30  H   -0.065005   0.002315   0.020629  -0.000176   0.000861  -0.004725
             13         14         15         16         17         18
     1  C   -0.000688  -0.001424   0.011608   0.002607  -0.000501   0.000098
     2  H   -0.000246  -0.000004   0.003000   0.000045   0.000103  -0.000013
     3  H   -0.000001   0.000358   0.000186   0.000052   0.000050   0.000003
     4  H    0.000240  -0.000051  -0.000250   0.000006  -0.000030  -0.000003
     5  C    0.010020   0.007833  -0.139827   0.011719   0.002132  -0.000466
     6  H   -0.001093   0.000641  -0.008796  -0.000703  -0.000085   0.000033
     7  C   -0.033457  -0.021145  -0.273551  -0.019846  -0.076188   0.003126
     8  H    0.003140  -0.003800  -0.025620  -0.001227  -0.002728   0.000610
     9  C   -0.049089  -0.064165   0.359086  -0.012561  -0.193986  -0.001410
    10  H    0.017618  -0.026634   0.036405   0.009743  -0.012655   0.001840
    11  H   -0.021185   0.026023   0.061522   0.018910   0.022590   0.000736
    12  C    0.416350   0.449640  -1.473253  -0.129081   0.369641  -0.078920
    13  H    0.597151  -0.064747   0.034811   0.024436  -0.004005   0.006113
    14  H   -0.064747   0.621704  -0.071923  -0.018981   0.017584  -0.001192
    15  C    0.034811  -0.071923   6.855849   0.569318  -0.160056   0.082455
    16  H    0.024436  -0.018981   0.569318   0.632112  -0.048955   0.015505
    17  C   -0.004005   0.017584  -0.160056  -0.048955   5.720584   0.379554
    18  H    0.006113  -0.001192   0.082455   0.015505   0.379554   0.561113
    19  H   -0.004015   0.001991  -0.080679  -0.013030   0.400887  -0.033946
    20  H    0.002315   0.005078  -0.046053  -0.013031   0.405221  -0.044841
    21  C   -0.000345  -0.002684  -0.013588  -0.006622  -0.001219  -0.000156
    22  H   -0.000795   0.000127  -0.001751  -0.000605   0.000011  -0.000001
    23  H    0.000637   0.000878   0.008264   0.001611   0.000685  -0.000034
    24  C   -0.074748   0.028013  -0.118884  -0.140586  -0.179791  -0.034255
    25  H   -0.005123  -0.002030  -0.105264  -0.007549  -0.004432   0.002570
    26  H    0.014169  -0.003543   0.085589   0.015123  -0.005887   0.011464
    27  H    0.001104   0.002151  -0.084556  -0.021627  -0.002719  -0.005516
    28  O   -0.000216   0.000482   0.002145   0.000289   0.000205   0.000001
    29  O   -0.000441   0.001132   0.008492   0.000738   0.001019  -0.000057
    30  H   -0.000320  -0.000083  -0.001399  -0.000037   0.000013   0.000008
             19         20         21         22         23         24
     1  C    0.000055  -0.000259  -0.148286  -0.047314   0.015343  -0.003803
     2  H    0.000034  -0.000001   0.025353   0.004758  -0.003202   0.000083
     3  H   -0.000002  -0.000017  -0.040009  -0.001893   0.000522  -0.000154
     4  H   -0.000004   0.000005  -0.026064  -0.004560   0.002938  -0.000083
     5  C   -0.001344   0.000634  -0.924423  -0.147483   0.125256  -0.032927
     6  H   -0.000112  -0.000025  -0.104829  -0.001152   0.006152   0.000293
     7  C   -0.003305  -0.002073   0.542231   0.066608  -0.206292   0.086286
     8  H   -0.000041  -0.000356  -0.011597  -0.000386  -0.002869   0.000979
     9  C    0.000169   0.005252   0.272008   0.011337   0.056154   0.156651
    10  H   -0.000153  -0.000929   0.032140   0.003738  -0.009101  -0.017148
    11  H    0.001775  -0.001261  -0.090330  -0.005289   0.028840  -0.021764
    12  C    0.036743  -0.020849  -0.005264   0.002440  -0.002627   0.042141
    13  H   -0.004015   0.002315  -0.000345  -0.000795   0.000637  -0.074748
    14  H    0.001991   0.005078  -0.002684   0.000127   0.000878   0.028013
    15  C   -0.080679  -0.046053  -0.013588  -0.001751   0.008264  -0.118884
    16  H   -0.013030  -0.013031  -0.006622  -0.000605   0.001611  -0.140586
    17  C    0.400887   0.405221  -0.001219   0.000011   0.000685  -0.179791
    18  H   -0.033946  -0.044841  -0.000156  -0.000001  -0.000034  -0.034255
    19  H    0.568962  -0.020458  -0.000006   0.000007   0.000029  -0.004699
    20  H   -0.020458   0.578811   0.000301   0.000010  -0.000037   0.023082
    21  C   -0.000006   0.000301   6.152873   0.426974   0.300138   0.025895
    22  H    0.000007   0.000010   0.426974   0.598915  -0.050731   0.001771
    23  H    0.000029  -0.000037   0.300138  -0.050731   0.601626  -0.005555
    24  C   -0.004699   0.023082   0.025895   0.001771  -0.005555   5.725231
    25  H    0.000797   0.001567   0.001108   0.000053  -0.000363   0.418167
    26  H    0.001273  -0.002577  -0.001733  -0.000057   0.000489   0.346276
    27  H    0.000610  -0.001249   0.010225   0.000534  -0.003986   0.437262
    28  O    0.000008  -0.000018   0.225229  -0.077459  -0.042319  -0.000777
    29  O    0.000049  -0.000026  -0.022075   0.028273   0.002721  -0.003455
    30  H   -0.000009   0.000006   0.029992  -0.000786   0.000929   0.000448
             25         26         27         28         29         30
     1  C   -0.000140   0.000376  -0.002189   0.018800  -0.007901  -0.002551
     2  H   -0.000002   0.000035  -0.000151   0.001295   0.001766  -0.000653
     3  H   -0.000006   0.000006  -0.000032  -0.002205   0.002931  -0.000157
     4  H   -0.000001  -0.000003   0.000036  -0.002689  -0.001511   0.000204
     5  C   -0.001665   0.001158  -0.005826  -0.083867  -0.129636   0.016319
     6  H   -0.000027  -0.000165   0.000667   0.003189  -0.005029   0.000895
     7  C    0.004205  -0.016001   0.025057  -0.005782   0.152860  -0.065005
     8  H    0.000405  -0.000966   0.001455   0.001219  -0.020175   0.002315
     9  C    0.006102   0.008727   0.062420  -0.020630  -0.075792   0.020629
    10  H   -0.000410   0.003281   0.002223  -0.000142  -0.005999  -0.000176
    11  H   -0.003121   0.005871  -0.027774   0.009077   0.048049   0.000861
    12  C    0.040461  -0.090005  -0.053619   0.022007   0.045898  -0.004725
    13  H   -0.005123   0.014169   0.001104  -0.000216  -0.000441  -0.000320
    14  H   -0.002030  -0.003543   0.002151   0.000482   0.001132  -0.000083
    15  C   -0.105264   0.085589  -0.084556   0.002145   0.008492  -0.001399
    16  H   -0.007549   0.015123  -0.021627   0.000289   0.000738  -0.000037
    17  C   -0.004432  -0.005887  -0.002719   0.000205   0.001019   0.000013
    18  H    0.002570   0.011464  -0.005516   0.000001  -0.000057   0.000008
    19  H    0.000797   0.001273   0.000610   0.000008   0.000049  -0.000009
    20  H    0.001567  -0.002577  -0.001249  -0.000018  -0.000026   0.000006
    21  C    0.001108  -0.001733   0.010225   0.225229  -0.022075   0.029992
    22  H    0.000053  -0.000057   0.000534  -0.077459   0.028273  -0.000786
    23  H   -0.000363   0.000489  -0.003986  -0.042319   0.002721   0.000929
    24  C    0.418167   0.346276   0.437262  -0.000777  -0.003455   0.000448
    25  H    0.569703  -0.030855  -0.023909  -0.000040  -0.000235  -0.000002
    26  H   -0.030855   0.561225  -0.047002   0.000119   0.001128  -0.000136
    27  H   -0.023909  -0.047002   0.601256  -0.000738  -0.006030   0.000008
    28  O   -0.000040   0.000119  -0.000738   7.999695   0.031247  -0.006343
    29  O   -0.000235   0.001128  -0.006030   0.031247   7.968466   0.178164
    30  H   -0.000002  -0.000136   0.000008  -0.006343   0.178164   0.560721
 Mulliken atomic charges:
              1
     1  C   -0.534609
     2  H    0.136491
     3  H    0.176926
     4  H    0.139149
     5  C    0.536568
     6  H    0.171529
     7  C    0.045643
     8  H    0.211599
     9  C   -0.751095
    10  H    0.148561
    11  H    0.089866
    12  C   -0.527988
    13  H    0.132412
    14  H    0.118772
    15  C    0.486717
    16  H    0.132226
    17  C   -0.627042
    18  H    0.135579
    19  H    0.148414
    20  H    0.131778
    21  C   -0.645239
    22  H    0.194707
    23  H    0.173901
    24  C   -0.653949
    25  H    0.140035
    26  H    0.142617
    27  H    0.141913
    28  O   -0.071782
    29  O   -0.194571
    30  H    0.270870
 Sum of Mulliken atomic charges =   0.00000
 Mulliken charges with hydrogens summed into heavy atoms:
              1
     1  C   -0.082043
     5  C    0.708096
     7  C    0.257242
     9  C   -0.512667
    12  C   -0.276803
    15  C    0.618943
    17  C   -0.211271
    21  C   -0.276631
    24  C   -0.229383
    28  O   -0.071782
    29  O    0.076299
 Sum of Mulliken charges with hydrogens summed into heavy atoms =   0.00000
          Atomic-Atomic Spin Densities.
              1          2          3          4          5          6
     1  C   -0.008725   0.002102  -0.002923   0.004922   0.023133  -0.001502
     2  H    0.002102  -0.001763   0.000366   0.001410  -0.013905  -0.002285
     3  H   -0.002923   0.000366  -0.000997  -0.000305   0.006995   0.000497
     4  H    0.004922   0.001410  -0.000305   0.002778  -0.011728  -0.004398
     5  C    0.023133  -0.013905   0.006995  -0.011728   0.062004   0.042379
     6  H   -0.001502  -0.002285   0.000497  -0.004398   0.042379   0.063793
     7  C   -0.061578   0.011833  -0.002648   0.005673  -0.001805  -0.031219
     8  H    0.007086  -0.000556   0.000205  -0.000859  -0.027977   0.002013
     9  C    0.029124   0.000706   0.000095   0.000296  -0.050044  -0.012697
    10  H   -0.003483  -0.000907   0.000058  -0.000581   0.023277   0.018196
    11  H    0.005758   0.000702  -0.000039   0.000403  -0.039916  -0.013922
    12  C    0.001298   0.000314  -0.000353  -0.000759  -0.019313   0.005165
    13  H   -0.000236  -0.000094   0.000032  -0.000013   0.002797   0.000481
    14  H    0.001182   0.000266  -0.000043   0.000050  -0.006836  -0.001899
    15  C    0.001272   0.000155  -0.000005   0.000004  -0.008607  -0.001858
    16  H   -0.000054  -0.000009   0.000003  -0.000007   0.000246   0.000182
    17  C    0.000346   0.000020  -0.000009  -0.000008  -0.002058  -0.000047
    18  H   -0.000020  -0.000003   0.000000  -0.000001   0.000119   0.000033
    19  H    0.000019   0.000002   0.000000   0.000000  -0.000151  -0.000014
    20  H   -0.000025   0.000002   0.000002   0.000002   0.000104  -0.000044
    21  C    0.028943   0.003047  -0.001682   0.005293  -0.118948  -0.041280
    22  H   -0.002896  -0.000534   0.000364  -0.001977   0.018299   0.008506
    23  H    0.001012   0.000172  -0.000196   0.000047   0.000564  -0.001644
    24  C    0.000078   0.000029  -0.000013   0.000008  -0.000953  -0.000251
    25  H    0.000022   0.000002   0.000000   0.000001  -0.000206  -0.000090
    26  H   -0.000049  -0.000008   0.000002  -0.000003   0.000361   0.000110
    27  H    0.000149   0.000008  -0.000001   0.000018  -0.000668  -0.000438
    28  O   -0.000549   0.000108  -0.000221  -0.000279   0.000555  -0.000211
    29  O    0.002690   0.000094   0.000030   0.000163  -0.014583  -0.001450
    30  H   -0.000704  -0.000026  -0.000019  -0.000010   0.004510   0.000339
              7          8          9         10         11         12
     1  C   -0.061578   0.007086   0.029124  -0.003483   0.005758   0.001298
     2  H    0.011833  -0.000556   0.000706  -0.000907   0.000702   0.000314
     3  H   -0.002648   0.000205   0.000095   0.000058  -0.000039  -0.000353
     4  H    0.005673  -0.000859   0.000296  -0.000581   0.000403  -0.000759
     5  C   -0.001805  -0.027977  -0.050044   0.023277  -0.039916  -0.019313
     6  H   -0.031219   0.002013  -0.012697   0.018196  -0.013922   0.005165
     7  C    1.133661   0.044110   0.075736  -0.024669  -0.053750   0.004348
     8  H    0.044110  -0.051861  -0.024805   0.004477  -0.007269   0.008775
     9  C    0.075736  -0.024805  -0.114296  -0.012430   0.026923  -0.031820
    10  H   -0.024669   0.004477  -0.012430   0.072990  -0.054051   0.024943
[...]
 -0.00032370,0.00093935,0.00029831,-0.00004408,-0.00001130,0.00009997,-
 0.00009894,-0.00064870,0.00004162,-0.00689670,-0.01419350,-0.00351266,
 0.00133098,0.00108719,0.00083039,-0.00055359,0.00116709,0.00028377,-0.
 00390228,-0.17571910,-0.00371548,-0.00069491,-0.01662115,-0.00061301,0
 .00492714,-0.02002604,-0.00427555,-0.00131448,0.00121769,0.00088519,-0
 .00134619,0.00085602,0.00061770,0.00090333,0.00042632,-0.00068541,-0.0
 0000269,0.00004997,0.00002617,-0.00000741,-0.00000672,0.00000184,0.000
 00844,-0.00001731,-0.00001420,-0.01129528,0.45556415,-0.00001048,-0.00
 000590,0.00003951,0.00001002,0.00000306,-0.00000376,-0.00000107,0.0000
 0514,-0.00000733,-0.00003120,-0.00000501,0.,0.00003080,0.00010074,-0.0
 0007446,-0.00000993,-0.00001506,0.00001924,0.00023678,-0.00028746,0.00
 000955,-0.00006609,-0.00000899,-0.00002267,-0.00046781,0.00064362,-0.0
 0010752,-0.00012094,-0.00007225,0.00015137,0.00026174,-0.00074557,0.00
 040817,-0.00221710,-0.01633656,-0.00191799,0.00018546,-0.00130096,0.00
 052506,-0.00274514,-0.00156313,-0.00095231,0.00072052,-0.00129927,-0.0
 7855817,0.00166304,0.03167533,0.00202423,0.00095796,-0.01932290,-0.001
 64976,-0.00032910,-0.00109478,0.00055132,-0.00095266,0.00074528,0.0003
 6318,0.00251994,-0.00224411,-0.00146033,0.00007784,-0.00006486,0.00011
 107,-0.00004987,0.00001906,0.00000122,0.00000854,-0.00002182,-0.000040
 65,-0.00213439,0.00028458,0.55967434,-0.00002731,0.00001459,0.00004348
 ,0.00001449,0.00000270,-0.00000331,0.00000503,0.00000317,-0.00000587,-
 0.00003910,-0.00001269,0.00000282,0.00003078,0.00007667,-0.00007212,-0
 .00000692,-0.00001497,0.00002421,0.00001682,-0.00017671,-0.00002380,-0
 .00004723,-0.00000479,-0.00001216,0.00002713,0.00032151,-0.00021907,0.
 00000368,-0.00008516,0.00008529,0.00027647,-0.00043742,-0.00001863,0.0
 0100854,-0.00022720,0.00091535,0.00006193,0.00014843,0.00003064,-0.000
 08977,-0.00009178,-0.00012219,-0.00214968,0.00005970,-0.00028193,0.000
 05953,-0.00047817,0.00037084,0.00070453,0.00094896,0.00042263,-0.00002
 799,-0.00003204,0.00001947,0.00058964,-0.00004296,-0.00014370,0.000234
 45,-0.00007908,0.00015935,0.00003412,-0.00008351,0.00003145,-0.0000457
 5,0.00001410,0.00001259,0.00002263,-0.00001529,-0.00002454,-0.23773553
 ,-0.05889224,-0.09726457,0.25797189,-0.00001517,0.00000315,0.00002547,
 0.00000810,0.00000832,0.00000014,0.00000153,-0.00000124,-0.00000459,-0
 .00001857,-0.00000703,0.00000036,-0.00000893,0.00000704,-0.00003767,-0
 .00000230,-0.00000662,0.00001141,-0.00013836,0.00020652,0.00011840,0.0
 0004032,-0.00002813,0.00001871,0.00063816,-0.00021768,-0.00025275,-0.0
 0006025,0.00001576,0.00005340,-0.00014700,0.00034089,0.00008999,0.0016
 7700,-0.00683800,0.00053234,0.00019740,0.00010576,-0.00010677,-0.00183
 658,-0.00077805,-0.00091964,-0.02910462,-0.00901688,-0.01590880,0.0000
 7163,0.00119721,0.00059862,-0.00155435,0.00148315,-0.00004868,0.000160
 00,-0.00003847,0.00000284,0.00102770,-0.00008466,0.00004334,0.00005926
 ,0.00033425,0.00042192,0.00001614,-0.00008286,0.00001207,-0.00001824,0
 .00001519,0.00000377,0.00000232,0.00000383,0.00000150,-0.05759668,-0.0
 6375136,-0.02909982,0.06450908,0.07128312,-0.00000274,0.00000363,0.000
 00301,0.00000277,0.00000056,-0.00000030,0.00000183,0.00000047,-0.00000
 059,-0.00000516,-0.00000213,0.00000206,-0.00000292,-0.00000536,-0.0000
 0313,-0.00000016,-0.00000186,0.00000301,-0.00009904,0.00011885,0.00003
 373,0.00003834,0.00000034,0.00001180,0.00027458,-0.00005609,0.00011540
 ,-0.00005444,-0.00003220,0.00000439,-0.00013247,0.00020437,-0.00010273
 ,0.00040175,-0.00082910,0.00049906,0.00032708,0.00017141,0.00047716,-0
 .00033071,-0.00024389,0.00027924,-0.00065957,0.00018034,-0.00172451,0.
 00042325,-0.00029397,0.00040688,-0.00059240,0.00012915,-0.00013701,-0.
 00012890,-0.00003965,-0.00008293,0.00043928,-0.00035645,0.00017073,0.0
 0027225,0.00016028,0.00002980,-0.00000324,-0.00000848,-0.00001418,-0.0
 0000141,-0.00000044,0.00000456,0.00000185,0.00000007,0.00000240,-0.096
 75964,-0.02964649,-0.09640449,0.10698742,0.03321252,0.10060588,0.00000
 223,-0.00000535,-0.00000362,-0.00000350,0.00000122,0.00000095,-0.00000
 353,-0.00000234,-0.00000187,0.00000692,0.00000110,-0.00000185,-0.00002
 056,-0.00001195,0.00000201,0.00000413,0.00000978,-0.00001097,0.0000242
 0,0.00001001,-0.00000601,-0.00002705,-0.00002202,-0.00002946,-0.000193
 65,-0.00005044,-0.00006343,0.00008271,0.00016184,-0.00009399,-0.000029
 17,0.00005797,0.00015968,0.00043817,-0.00038752,0.00132480,0.00006031,
 -0.00004831,-0.00025675,-0.00001068,0.00013263,-0.00011924,-0.00100032
 ,-0.00118925,0.00209530,0.00063995,-0.00058416,0.00002020,0.00008194,0
 .00035758,-0.00092015,0.00023948,0.00010310,0.00017236,0.00000770,0.00
 002994,-0.00013790,-0.00009137,-0.00013248,0.00015283,0.00002780,-0.00
 001179,0.00003489,0.00000403,0.00000455,-0.00000936,-0.00000929,-0.000
 00297,0.00000447,-0.04758384,0.00322938,-0.00639323,-0.00008580,0.0119
 6974,-0.02599998,0.04615599,-0.00000369,0.00000009,0.00000402,0.000000
 34,-0.00000026,0.00000283,-0.00000293,0.00000114,-0.00000178,-0.000000
 04,-0.00000179,-0.00000197,-0.00001323,-0.00000920,-0.00000688,0.00000
 650,0.00000321,-0.00000912,-0.00004271,0.00002981,0.00002928,-0.000027
 95,-0.00001536,-0.00001530,-0.00015527,-0.00002808,-0.00010742,0.00019
 010,0.00000996,-0.00013771,-0.00006337,0.00001080,0.00005281,0.0010308
 1,0.00150437,0.00153720,-0.00058289,0.00023632,-0.00113155,0.00024942,
 0.00040883,-0.00035439,0.00077835,-0.01558649,0.03199072,-0.00036444,-
 0.00672813,-0.00087915,-0.00080656,0.00141030,0.00135184,0.00048765,0.
 00015305,-0.00106504,0.00004576,-0.00003864,-0.00010446,-0.00018723,0.
 00036515,-0.00037592,0.00000333,-0.00001409,0.00000050,0.00000079,0.00
 000239,-0.00000077,-0.00000331,0.00000076,0.00000222,0.00316631,-0.086
 14557,0.09217990,0.00066725,0.00301739,-0.00821206,-0.00286254,0.09663
 664,0.00001136,-0.00000173,-0.00001699,-0.00000268,-0.00000321,-0.0000
 0149,0.00000331,0.00000105,0.00000838,0.00000966,0.00000587,0.00000116
 ,0.00001338,0.00000880,0.00001698,-0.00000134,-0.00001167,0.00001073,-
 0.00003915,-0.00001226,-0.00003939,0.00003073,0.00002733,0.00003188,0.
 00016695,0.00017014,0.00009397,-0.00005941,-0.00013825,0.00005989,0.00
 003617,0.00006890,-0.00018768,-0.00013769,-0.00042910,0.00082384,0.000
 55597,0.00036552,0.00032339,0.00013443,0.00002652,0.00025199,0.0002263
 1,0.00000628,0.00069783,-0.00004983,-0.00055636,0.00158949,-0.00005389
 ,-0.00034975,0.00083899,-0.00045030,0.00034652,0.00037003,0.00005578,0
 .00001844,-0.00008508,-0.00009156,0.00007371,0.00026529,-0.00006459,0.
 00006808,-0.00006446,0.00001322,-0.00001460,0.00000659,0.00000653,0.00
 001153,0.00000338,-0.00634507,0.09249327,-0.25968583,0.00013783,0.0048
 3704,-0.01247133,0.00717828,-0.10321066,0.28257529,0.00001475,-0.00000
 205,-0.00001432,-0.00000339,-0.00000580,-0.00000097,-0.00000235,0.0000
 0162,0.00000038,0.00001009,0.00000549,0.00000049,0.00001397,0.00002523
 ,0.00003570,-0.00000131,0.00000628,-0.00000574,0.00015825,-0.00013750,
 -0.00008818,-0.00002672,0.00001940,-0.00001019,-0.00102222,-0.00060524
 ,-0.00023134,0.00004992,0.00012361,0.00003241,-0.00111432,-0.00125647,
 -0.00038373,-0.00000490,0.00046230,-0.00024936,-0.00002581,-0.00006102
 ,-0.00006251,0.00012183,0.00010747,0.00014672,0.00214393,-0.00102670,-
 0.00241759,0.00022683,0.00058113,-0.00024460,0.00056673,0.00028916,-0.
 00052031,-0.00003402,-0.00012754,-0.00000678,0.00046863,-0.00022570,0.
 00004629,0.00017768,-0.00005157,0.00025249,-0.00000380,0.00002792,0.00
 001119,0.00001105,0.00000214,-0.00000032,-0.00001179,-0.00000662,0.000
 00759,-0.19451878,0.07444617,0.10619437,-0.02072846,0.01014579,0.01561
 108,0.00127313,-0.00152140,-0.00131862,0.21224521,0.00002719,-0.000016
 61,-0.00003387,-0.00000994,0.00000303,0.00000282,-0.00000099,-0.000002
 20,0.00000725,0.00002935,0.00001122,-0.00000094,-0.00003797,-0.0000655
 2,0.00005645,0.00000218,-0.00000299,-0.00000596,-0.00025588,0.00030012
 ,0.00012426,0.00012602,0.00001958,0.00006798,-0.00010825,-0.00031730,-
 0.00005335,-0.00008865,-0.00014327,0.00008844,-0.00095942,0.00025737,-
 0.00023559,0.00074945,0.00112497,-0.00000999,-0.00012357,-0.00004953,-
 0.00000525,0.00007283,0.00008261,0.00019084,0.02600319,-0.01021906,-0.
 01825043,0.00010706,0.00119195,0.00064708,-0.00209502,-0.00684493,0.00
 051589,-0.00019598,0.00010898,-0.00016128,-0.00009178,0.00014961,0.000
 29186,0.00171014,-0.00097246,-0.00117131,-0.00005654,0.00006236,-0.000
 06394,0.00003708,-0.00001340,-0.00000455,-0.00001451,0.00002902,0.0000
 2323,0.07322566,-0.08395156,-0.05223932,-0.00613912,0.00276462,0.00555
 214,-0.01079575,0.00476477,0.00627831,-0.08120080,0.09178640,0.0000134
 4,-0.00000628,-0.00002471,-0.00000801,0.00000600,0.00000371,-0.0000034
 8,-0.00000719,-0.00000086,0.00002280,0.00000464,-0.00000063,-0.0000370
 2,-0.00007368,0.00005540,0.00000603,0.00001736,-0.00002005,-0.00016114
 ,0.00037593,0.00002530,0.00006011,-0.00002807,0.00001432,0.00038626,-0
 .00068933,0.00028604,-0.00002939,0.00015925,-0.00014071,-0.00060427,0.
 00051943,0.00011500,0.00067741,-0.00020933,-0.00017996,0.00004185,-0.0
 0003970,-0.00000918,-0.00013765,0.00003333,0.00001979,-0.00022735,0.00
 040636,-0.00168744,-0.00044350,-0.00028699,0.00057148,-0.00056023,-0.0
 0061753,0.00073004,-0.00027885,0.00023739,0.00046053,0.00027990,0.0000
 6520,-0.00000467,0.00033785,-0.00006024,0.00036013,0.00000403,-0.00001
 274,-0.00000441,0.00002818,0.00000207,-0.00001260,-0.00001757,0.000010
 89,0.00003016,0.10548157,-0.05304721,-0.12289247,-0.01100127,0.0064193
 7,0.00828220,0.02292725,-0.01152803,-0.01548022,-0.11678061,0.05831564
 ,0.12949146,0.00003710,-0.00171609,-0.00013616,0.00028587,-0.00013748,
 0.00034587,0.00047353,0.00000650,0.00083594,0.00019827,0.00023823,-0.0
 0013025,-0.00826789,0.01529327,-0.01839433,-0.00154225,0.00460956,0.00
 125865,0.00286276,-0.00120154,-0.00158830,-0.00048078,0.00036975,0.000
 42013,-0.00070248,-0.00006043,-0.00007990,0.00017399,-0.00009911,0.000
 21588,-0.00018280,0.00022419,-0.00009210,0.00015206,-0.00002842,-0.000
 09746,-0.00004930,-0.00001946,0.00006647,-0.00002712,0.00004340,0.0000
 1227,0.00003853,0.00005031,0.00007475,0.00001256,-0.00001450,0.0000126
 8,-0.00002681,-0.00003335,-0.00004252,0.00000248,-0.00000295,0.0000208
 8,-0.00004900,-0.00000161,-0.00000264,0.00001184,0.00000302,0.00000016
 ,-0.12389240,0.01638962,-0.03952433,0.00840769,-0.01579891,0.02114207,
 -0.01291439,0.01640030,-0.02608266,-0.00000428,-0.00001076,-0.00004262
 ,-0.00004805,-0.00001260,-0.00000917,0.00000829,0.00000080,0.00002328,
 0.00001009,0.00005043,0.00002351,0.29435659,0.00031150,0.00200866,0.00
 006890,0.00024168,0.00031410,0.00059636,0.00017253,-0.00079758,0.00033
 370,-0.00045849,-0.00051143,0.00030143,0.01694408,-0.02168696,0.031038
 63,0.00406097,-0.00702029,-0.00186741,-0.00353067,0.00132825,0.0011096
 9,0.00050958,0.00003376,-0.00030690,0.00002717,-0.00014379,-0.00002541
 ,0.00001134,-0.00013307,-0.00007093,0.00024829,0.00024566,-0.00001570,
 0.00004071,0.00024137,0.00022370,0.00000325,-0.00000907,-0.00003375,-0
 .00007638,0.00003226,0.00003403,-0.00003819,-0.00010405,-0.00011470,-0
 .00000283,0.00001507,-0.00000513,0.00004791,0.00006079,0.00005461,-0.0
 0000642,-0.00000305,-0.00001905,0.00006449,-0.00000141,0.00000193,-0.0
 0002424,0.00001479,0.00000305,0.04706590,-0.09460640,0.04908160,0.0008
 4960,-0.00850201,0.01415522,-0.00392890,0.00953340,-0.00200077,0.00007
 417,-0.00001045,0.00002707,0.00004645,0.00003486,0.00000890,-0.0000017
 5,0.00000202,-0.00003054,-0.00002955,-0.00004143,-0.00000138,0.0223344
 5,0.21808673,-0.00081585,-0.00115507,-0.00032450,0.00057422,-0.0003146
 5,0.00077464,0.00085024,0.00028053,0.00158054,0.00018219,-0.00003864,0
 .00011159,-0.00366997,0.01082272,0.00159855,0.00020679,-0.00069647,0.0
 0120635,0.00106793,0.00009477,-0.00072738,-0.00022417,-0.00013136,0.00
 041602,-0.00018421,0.00006388,0.00007606,0.00017483,-0.00016081,0.0001
 6236,-0.00001242,-0.00002614,-0.00017035,0.00008546,-0.00001373,-0.000
 08003,-0.00008682,-0.00000175,0.00012091,-0.00001707,0.00002232,0.0000
 3670,0.00001437,0.00002922,0.00006933,0.00002354,-0.00002311,0.0000251
 0,-0.00002066,-0.00002184,-0.00003865,-0.00000372,-0.00000417,0.000023
 08,-0.00003300,-0.00000010,0.00000095,0.00000726,0.00000309,0.00000005
 ,-0.07511798,0.04650706,-0.12502347,-0.00377085,0.01320939,-0.01995474
 ,-0.01327334,0.01857780,-0.02875495,0.00002659,-0.00000646,-0.00007582
 ,-0.00002866,-0.00001496,0.00000691,-0.00001915,-0.00000471,0.00004654
 ,-0.00000485,0.00004988,0.00000787,0.01852197,-0.15000539,0.23190700,-
 0.00009582,0.00001882,0.00001536,0.00012088,-0.00005208,0.00003798,-0.
 00016576,-0.00009551,0.00005066,0.00005763,0.00019756,-0.00011450,0.00
 203799,0.00054676,-0.00138514,-0.00019520,0.00016786,0.00011590,-0.001
 06289,0.00035352,-0.00074459,0.00012821,-0.00000542,-0.00023138,-0.000
 22032,-0.00040925,-0.00026949,-0.00006635,0.00032266,-0.00005527,0.000
 43359,0.00064047,0.00038349,0.00010302,0.00030024,0.00000304,0.0000147
 8,-0.00005533,-0.00003214,-0.00015539,0.00007543,0.00006528,0.00003819
 ,-0.00001521,0.00002258,-0.00000542,0.00001278,-0.00002023,0.00000083,
 0.00000912,-0.00001298,0.00000545,-0.00000634,0.00000068,-0.00001990,-
 0.00000870,-0.00000229,-0.00000320,0.00002209,0.00000686,0.00703422,0.
 00070175,0.00768826,0.00363415,0.00055899,-0.00172232,0.00271218,0.001
 11401,0.00010653,0.00003903,-0.00001957,-0.00002824,-0.00005157,0.0000
 2003,-0.00000977,0.00003975,0.00000498,-0.00003795,-0.00001532,0.00001
 173,0.00007107,-0.15357588,-0.04032448,0.06681118,0.20477528,-0.000094
 56,-0.00011070,0.00023003,0.00014617,-0.00002465,-0.00004062,-0.000254
 09,-0.00028623,-0.00004650,0.00009910,0.00024793,-0.00016131,0.0002146
 0,0.00015088,-0.00082971,0.00001657,0.00045020,-0.00023478,0.00110029,
 -0.00272257,0.00017369,0.00015540,-0.00032937,0.00031796,-0.00008562,-
 0.00002434,-0.00029471,0.00000665,0.00005016,-0.00003283,0.00012036,-0
 .00008256,0.00030535,-0.00008070,-0.00003045,0.00027714,0.00005673,-0.
 00001920,-0.00010565,-0.00000748,0.00002810,-0.00004787,-0.00003178,-0
 .00007800,-0.00010844,-0.00001784,0.00003053,-0.00002110,0.00003987,0.
 00004742,0.00005191,0.00000269,-0.00000312,-0.00002290,0.00004012,-0.0
 0000396,-0.00000384,-0.00001824,0.00001823,0.00000306,-0.03057843,-0.0
 1223604,0.01654107,0.00351120,-0.00286332,0.00265177,0.00233172,0.0020
 4176,-0.00203327,0.00003308,-0.00001461,0.00007285,0.00001675,0.000037
 71,-0.00001536,0.00004496,0.00000691,-0.00007145,-0.00000196,-0.000040
 23,0.00003491,-0.05752424,-0.08779394,0.06134000,-0.07584346,0.5590568
 2,-0.00018312,0.00032508,-0.00057563,0.00001522,0.00005132,0.00020885,
 0.00000823,-0.00002197,0.00024042,-0.00006077,-0.00011617,-0.00002118,
 -0.00172121,-0.00143034,0.00281910,0.00044216,-0.00077289,-0.00002215,
 -0.00019451,0.00105453,0.00010310,-0.00011297,-0.00014006,0.00027967,-
 0.00022721,-0.00043575,0.00018588,-0.00002074,0.00010548,0.00002574,0.
 00040286,0.00038187,-0.00016170,0.00008664,0.00027207,-0.00027442,-0.0
 0005032,-0.00003799,0.00008896,-0.00010032,0.00003392,0.00006996,0.000
 01601,0.00002088,0.00010859,0.00001772,-0.00001449,0.00001654,-0.00002
 889,-0.00001677,-0.00005602,-0.00000192,-0.00000741,0.00002528,-0.0000
 4175,-0.00000331,0.00000338,0.00000816,0.00000517,0.00000264,0.0350188
 1,0.01564155,-0.02654938,-0.00393238,0.00603060,-0.00417068,0.00287562
 ,-0.00164448,0.00468455,0.00002780,-0.00000749,-0.00010523,-0.00004792
 ,-0.00001158,0.00000885,-0.00001026,-0.00000579,0.00004025,-0.00000820
 ,0.00004257,0.00004091,0.04467785,0.03129115,-0.06002167,-0.11511460,0
 .01383410,0.10847198,0.00011149,-0.00009130,-0.00000942,-0.00001313,-0
 .00004234,-0.00002211,-0.00005865,0.00000965,0.00001575,0.00003766,0.0
 0006198,-0.00001827,-0.00036795,-0.00058491,0.00037692,0.00013657,-0.0
 0001141,-0.00008885,-0.00021614,0.00083641,0.00004906,0.00009047,-0.00
 017069,-0.00027123,0.00025583,0.00021732,0.00007302,-0.00007675,-0.000
 03775,-0.00003934,-0.00007333,-0.00016336,-0.00000358,0.00000238,-0.00
 010303,-0.00008604,0.00001349,0.00002840,0.00001449,0.00004488,-0.0000
 4442,-0.00000811,0.00002600,0.00007132,0.00002917,-0.00000127,-0.00002
 376,0.00000602,-0.00002360,-0.00003932,-0.00001183,-0.00000080,0.00000
 911,0.00000369,-0.00000869,0.00000755,0.00000299,0.00001229,-0.0000243
 9,-0.00000577,-0.00461334,-0.00042212,-0.00075668,0.00046251,-0.000457
 87,0.00043255,0.00059135,0.00067440,-0.00048753,-0.00005327,0.00001076
 ,-0.00000259,0.00002151,-0.00003056,0.00001026,-0.00003797,0.00000518,
 0.00004887,0.00002109,0.00002185,-0.00007095,-0.00526823,-0.04463217,0
 .00873615,-0.06554218,0.15660216,0.03826000,0.07452777,-0.00011438,0.0
 0003319,0.00004265,0.,0.00008428,0.00002523,0.00001194,-0.00009853,-0.
 00005141,-0.00001390,-0.00003936,-0.00001624,-0.00040796,0.00039806,-0
 .00025943,-0.00005981,0.00019479,0.00001862,0.00074228,-0.00079053,-0.
 00001493,-0.00002690,0.00009700,0.00020016,-0.00026826,-0.00016104,-0.
 00005588,0.00000694,0.00001961,0.00002675,0.00009313,0.00016237,-0.000
 00302,0.00003631,0.00003743,-0.00006943,-0.00001305,0.00000112,0.00002
 652,-0.00002205,0.00000549,0.00001838,0.00001835,0.00002869,0.00003430
 ,0.00000350,-0.00001097,0.00000548,-0.00001360,-0.00001627,-0.00001700
 ,0.00000119,0.00000183,0.00000825,-0.00001830,0.00000102,-0.00000117,0
 .00000632,-0.00000657,-0.00000050,-0.00066500,-0.00268774,0.00134052,0
 .00010382,0.00026331,-0.00028456,-0.00012052,-0.00024274,0.00002019,-0
 .00000230,-0.00000634,-0.00002885,-0.00001625,-0.00000778,0.00000050,-
 0.00000520,0.00000371,0.00002228,0.00001621,0.00002390,-0.00000004,0.0
 0064760,-0.01058678,0.00161870,0.11175658,-0.45550336,-0.06442378,-0.1
 1167669,0.46880224,0.00008848,-0.00011472,-0.00001557,-0.00002797,-0.0
 0003525,-0.00005353,0.00006828,0.00004007,-0.00002959,-0.00003284,-0.0
 0002538,0.00003965,-0.00009579,-0.00011989,-0.00057207,-0.00011784,0.0
 0008431,0.00009335,0.00020069,-0.00031669,0.00005667,-0.00014244,0.000
 13537,0.00010801,-0.00002684,0.00019724,-0.00001723,0.00001039,-0.0000
 0463,0.00001757,-0.00013353,-0.00004383,0.00001521,-0.00004050,-0.0000
 6976,0.00008684,0.00001109,0.00001126,-0.00003286,0.00002827,-0.000023
 24,-0.00002962,-0.00000068,0.00000579,-0.00004778,-0.00000550,0.000008
 73,-0.00000768,0.00000635,-0.00000366,0.00002940,0.00000085,0.00000467
 ,-0.00001546,0.00001823,0.00000272,-0.00000074,-0.00000007,-0.00000786
 ,-0.00000456,0.00439071,0.00361829,-0.00031701,-0.00035798,0.00048738,
 -0.00095955,-0.00063551,-0.00004174,-0.00076839,-0.00004133,0.00000496
 ,0.00008053,0.00002634,0.00000203,-0.00000586,0.00000422,0.00000139,-0
 .00002338,0.00000949,-0.00001886,-0.00003640,-0.00142993,0.02616709,-0
 .00299898,0.04440199,-0.09176348,-0.02546657,-0.04617663,0.06181769,0.
 03087561\\0.00000137,-0.00000299,0.00000266,0.00000192,-0.00000355,0.0
 0000564,0.00000135,-0.00000577,0.00000136,0.00000110,-0.00000198,0.000
 00293,-0.00000029,0.00000005,0.00000081,0.00000015,0.00000270,0.000002
 63,0.00000046,-0.00000270,0.00000089,0.00000102,-0.00000459,0.00000101
 ,-0.00000097,0.00000131,0.00000053,-0.00000054,0.00000408,0.00000114,-
 0.00000116,0.00000161,-0.00000303,0.00000097,-0.00000034,0.00000215,0.
 00000061,-0.00000293,0.00000056,0.00000112,-0.00000055,0.00000498,-0.0
 0000028,0.00000332,0.00000021,-0.00000050,0.00000477,0.00000256,0.0000
 0033,0.00000081,0.00000378,0.00000116,-0.00000140,0.00000250,0.0000001
 9,0.00000290,0.00000330,0.00000128,0.00000103,0.00000646,0.00000027,0.
 00000157,-0.00000014,-0.00000139,0.00000106,-0.00000278,-0.00000172,0.
 00000234,-0.00000499,-0.00000106,0.00000132,-0.00000218,-0.00000156,0.
 00000442,-0.00000308,-0.00000101,0.00000110,-0.00000359,-0.00000184,0.
 00000372,-0.00000438,0.00000053,-0.00000331,-0.00000717,-0.00000084,-0
 .00000291,-0.00000764,-0.00000067,-0.00000509,-0.00000713\\\@
 Job cpu time:  0 days 13 hours  3 minutes 24.6 seconds.
 File lengths (MBytes):  RWF=  71225 Int=      0 D2E=      0 Chk=     32 Scr=      1
 Normal termination of Gaussian 09 at Sat Feb  8 09:16:12 2014.
