 Entering Gaussian System, Link 0=g09
 Initial command:
 /usr/caen/gaussian-09revc/g09/l1.exe /scratch/avioli_flux/hetanjin/scratch/Gau-120281.inp -scrdir=/scratch/avioli_flux/hetanjin/scratch/
 Entering Link 1 = /usr/caen/gaussian-09revc/g09/l1.exe PID=    120282.
  
 Copyright (c) 1988,1990,1992,1993,1995,1998,2003,2009,2011,
            Gaussian, Inc.  All Rights Reserved.
  
 This is part of the Gaussian(R) 09 program.  It is based on
 the Gaussian(R) 03 system (copyright 2003, Gaussian, Inc.),
 the Gaussian(R) 98 system (copyright 1998, Gaussian, Inc.),
 the Gaussian(R) 94 system (copyright 1995, Gaussian, Inc.),
 the Gaussian 92(TM) system (copyright 1992, Gaussian, Inc.),
 the Gaussian 90(TM) system (copyright 1990, Gaussian, Inc.),
 the Gaussian 88(TM) system (copyright 1988, Gaussian, Inc.),
 the Gaussian 86(TM) system (copyright 1986, Carnegie Mellon
 University), and the Gaussian 82(TM) system (copyright 1983,
 Carnegie Mellon University). Gaussian is a federally registered
 trademark of Gaussian, Inc.
  
 This software contains proprietary and confidential information,
 including trade secrets, belonging to Gaussian, Inc.
  
 This software is provided under written license and may be
 used, copied, transmitted, or stored only in accord with that
 written license.
  
 The following legend is applicable only to US Government
 contracts under FAR:
  
                    RESTRICTED RIGHTS LEGEND
  
 Use, reproduction and disclosure by the US Government is
 subject to restrictions as set forth in subparagraphs (a)
 and (c) of the Commercial Computer Software - Restricted
 Rights clause in FAR 52.227-19.
  
 Gaussian, Inc.
 340 Quinnipiac St., Bldg. 40, Wallingford CT 06492
  
  
 ---------------------------------------------------------------
 Warning -- This program may not be used in any manner that
 competes with the business of Gaussian, Inc. or will provide
 assistance to any competitor of Gaussian, Inc.  The licensee
 of this program is prohibited from giving any competitor of
 Gaussian, Inc. access to this program.  By using this program,
 the user acknowledges that Gaussian, Inc. is engaged in the
 business of creating and licensing software in the field of
 computational chemistry and represents and warrants to the
 licensee that it is not a competitor of Gaussian, Inc. and that
 it will not use this program in any manner prohibited above.
 ---------------------------------------------------------------
  

 Cite this work as:
 Gaussian 09, Revision C.01,
 M. J. Frisch, G. W. Trucks, H. B. Schlegel, G. E. Scuseria, 
 M. A. Robb, J. R. Cheeseman, G. Scalmani, V. Barone, B. Mennucci, 
 G. A. Petersson, H. Nakatsuji, M. Caricato, X. Li, H. P. Hratchian, 
 A. F. Izmaylov, J. Bloino, G. Zheng, J. L. Sonnenberg, M. Hada, 
 M. Ehara, K. Toyota, R. Fukuda, J. Hasegawa, M. Ishida, T. Nakajima, 
 Y. Honda, O. Kitao, H. Nakai, T. Vreven, J. A. Montgomery, Jr., 
 J. E. Peralta, F. Ogliaro, M. Bearpark, J. J. Heyd, E. Brothers, 
 K. N. Kudin, V. N. Staroverov, T. Keith, R. Kobayashi, J. Normand, 
 K. Raghavachari, A. Rendell, J. C. Burant, S. S. Iyengar, J. Tomasi, 
 M. Cossi, N. Rega, J. M. Millam, M. Klene, J. E. Knox, J. B. Cross, 
 V. Bakken, C. Adamo, J. Jaramillo, R. Gomperts, R. E. Stratmann, 
 O. Yazyev, A. J. Austin, R. Cammi, C. Pomelli, J. W. Ochterski, 
 R. L. Martin, K. Morokuma, V. G. Zakrzewski, G. A. Voth, 
 P. Salvador, J. J. Dannenberg, S. Dapprich, A. D. Daniels, 
 O. Farkas, J. B. Foresman, J. V. Ortiz, J. Cioslowski, 
 and D. J. Fox, Gaussian, Inc., Wallingford CT, 2010.
 
 ******************************************
 Gaussian 09:  EM64L-G09RevC.01 23-Sep-2011
                 9-Feb-2014 
 ******************************************
 %mem=30GB
 %nprocshared=8
 Will use up to    8 processors via shared memory.
 %chk=C9H18OOH_1_26_h.chk
 --------------------------------------------------
 #p UB3LYP/6-311++G(d,p) guess=mix stable=(opt,xqc)
 --------------------------------------------------
 1/38=1/1;
 2/12=2,17=6,18=5,40=1/2;
 3/5=4,6=6,7=1111,11=2,16=1,25=1,30=1,74=-5,116=2/1,2,3;
 4/13=-1/1;
 5/5=2,38=5/2;
 6/7=2,8=2,9=2,10=2,28=1/1;
 8/6=1,10=90,11=11/1;
 9/8=-3,42=1,46=1/14;
 5/5=2,8=3,13=1,17=40,38=5/2,8(-2);
 6/7=2,8=2,9=2,10=2,28=1/1;
 99/5=1,9=1/99;
 Leave Link    1 at Sun Feb  9 03:16:23 2014, MaxMem= 4026531840 cpu:       0.5
 (Enter /usr/caen/gaussian-09revc/g09/l101.exe)
 --------------------------------------------
 C9H18OOH_1_26_h using cbs-qb3 to cal. energy
 --------------------------------------------
 Charge =  0 Multiplicity = 2
 Symbolic Z-Matrix:
 C                    -3.10031  -1.67772  -0.27125 
 H                    -2.80398  -2.70756  -0.48802 
 H                    -3.32894  -1.18363  -1.21879 
 H                    -4.02222  -1.71133   0.31771 
 C                    -1.98348  -0.93442   0.47575 
 H                    -1.80465  -1.45624   1.4283 
 C                    -0.66498  -0.96703  -0.32231 
 H                    -0.47607  -2.01065  -0.60423 
 H                    -0.79706  -0.41537  -1.25856 
 C                     0.56413  -0.42983   0.42007 
 H                     0.66893  -0.95236   1.38099 
 H                     0.42527   0.62914   0.65654 
 C                     1.86008  -0.5963   -0.38202 
 H                     1.75989  -0.08245  -1.34756 
 H                     2.00548  -1.6582   -0.61547 
 C                     3.12     -0.0688    0.33008 
 H                     3.18525  -0.55805   1.31341 
 C                     4.39739  -0.47282  -0.44997 
 H                     4.38803  -0.04341  -1.45621 
 H                     5.29872  -0.11973   0.05757 
 H                     4.46314  -1.56176  -0.54373 
 C                    -2.44931   0.46915   0.88708 
 H                    -3.34677   0.38532   1.51067 
 H                    -1.68725   1.00965   1.45614 
 C                     3.07768   1.40956   0.54515 
 H                     3.71416   1.88112   1.2854 
 H                     2.53662   2.05582  -0.13793 
 O                    -2.90576   1.29675  -0.18727 
 O                    -1.73826   1.86602  -0.85531 
 H                    -1.95364   2.80681  -0.79103 
 
 NAtoms=     30 NQM=        0 NQMF=       0 NMMI=     30 NMMIF=      0
                NMic=       0 NMicF=      0.
                    Isotopes and Nuclear Properties:
 (Nuclear quadrupole moments (NQMom) in fm**2, nuclear magnetic moments (NMagM)
  in nuclear magnetons)

  Atom         1           2           3           4           5           6           7           8           9          10
 IAtWgt=          12           1           1           1          12           1          12           1           1          12
 AtmWgt=  12.0000000   1.0078250   1.0078250   1.0078250  12.0000000   1.0078250  12.0000000   1.0078250   1.0078250  12.0000000
 NucSpn=           0           1           1           1           0           1           0           1           1           0
 AtZEff=   0.0000000   0.0000000   0.0000000   0.0000000   0.0000000   0.0000000   0.0000000   0.0000000   0.0000000   0.0000000
 NQMom=    0.0000000   0.0000000   0.0000000   0.0000000   0.0000000   0.0000000   0.0000000   0.0000000   0.0000000   0.0000000
 NMagM=    0.0000000   2.7928460   2.7928460   2.7928460   0.0000000   2.7928460   0.0000000   2.7928460   2.7928460   0.0000000

  Atom        11          12          13          14          15          16          17          18          19          20
 IAtWgt=           1           1          12           1           1          12           1          12           1           1
 AtmWgt=   1.0078250   1.0078250  12.0000000   1.0078250   1.0078250  12.0000000   1.0078250  12.0000000   1.0078250   1.0078250
 NucSpn=           1           1           0           1           1           0           1           0           1           1
 AtZEff=   0.0000000   0.0000000   0.0000000   0.0000000   0.0000000   0.0000000   0.0000000   0.0000000   0.0000000   0.0000000
 NQMom=    0.0000000   0.0000000   0.0000000   0.0000000   0.0000000   0.0000000   0.0000000   0.0000000   0.0000000   0.0000000
 NMagM=    2.7928460   2.7928460   0.0000000   2.7928460   2.7928460   0.0000000   2.7928460   0.0000000   2.7928460   2.7928460

  Atom        21          22          23          24          25          26          27          28          29          30
 IAtWgt=           1          12           1           1          12           1           1          16          16           1
 AtmWgt=   1.0078250  12.0000000   1.0078250   1.0078250  12.0000000   1.0078250   1.0078250  15.9949146  15.9949146   1.0078250
 NucSpn=           1           0           1           1           0           1           1           0           0           1
 AtZEff=   0.0000000   0.0000000   0.0000000   0.0000000   0.0000000   0.0000000   0.0000000   0.0000000   0.0000000   0.0000000
 NQMom=    0.0000000   0.0000000   0.0000000   0.0000000   0.0000000   0.0000000   0.0000000   0.0000000   0.0000000   0.0000000
 NMagM=    2.7928460   0.0000000   2.7928460   2.7928460   0.0000000   2.7928460   2.7928460   0.0000000   0.0000000   2.7928460
 Leave Link  101 at Sun Feb  9 03:16:23 2014, MaxMem= 4026531840 cpu:       0.5
 (Enter /usr/caen/gaussian-09revc/g09/l202.exe)
                          Input orientation:                          
 ---------------------------------------------------------------------
 Center     Atomic      Atomic             Coordinates (Angstroms)
 Number     Number       Type             X           Y           Z
 ---------------------------------------------------------------------
      1          6           0       -3.100306   -1.677721   -0.271251
      2          1           0       -2.803976   -2.707563   -0.488016
      3          1           0       -3.328943   -1.183628   -1.218788
      4          1           0       -4.022222   -1.711326    0.317711
      5          6           0       -1.983479   -0.934423    0.475746
      6          1           0       -1.804645   -1.456242    1.428304
      7          6           0       -0.664983   -0.967031   -0.322311
      8          1           0       -0.476074   -2.010654   -0.604232
      9          1           0       -0.797059   -0.415367   -1.258558
     10          6           0        0.564125   -0.429828    0.420074
     11          1           0        0.668927   -0.952361    1.380987
     12          1           0        0.425274    0.629135    0.656538
     13          6           0        1.860077   -0.596301   -0.382015
     14          1           0        1.759894   -0.082451   -1.347559
     15          1           0        2.005476   -1.658202   -0.615466
     16          6           0        3.120003   -0.068796    0.330077
     17          1           0        3.185253   -0.558049    1.313406
     18          6           0        4.397392   -0.472817   -0.449968
     19          1           0        4.388031   -0.043411   -1.456210
     20          1           0        5.298724   -0.119725    0.057574
     21          1           0        4.463137   -1.561763   -0.543725
     22          6           0       -2.449306    0.469146    0.887077
     23          1           0       -3.346769    0.385316    1.510666
     24          1           0       -1.687248    1.009653    1.456142
     25          6           0        3.077680    1.409560    0.545145
     26          1           0        3.714159    1.881124    1.285403
     27          1           0        2.536615    2.055816   -0.137931
     28          8           0       -2.905760    1.296748   -0.187271
     29          8           0       -1.738257    1.866021   -0.855310
     30          1           0       -1.953641    2.806805   -0.791033
 ---------------------------------------------------------------------
                    Distance matrix (angstroms):
                    1          2          3          4          5
     1  C    0.000000
     2  H    1.093331   0.000000
     3  H    1.092808   1.769745   0.000000
     4  H    1.094502   1.767995   1.766332   0.000000
     5  C    1.535513   2.178550   2.178032   2.187470   0.000000
     6  H    2.148552   2.497348   3.066741   2.493217   1.100747
     7  C    2.537417   2.762644   2.819090   3.497807   1.541554
     8  H    2.666142   2.432759   3.033235   3.676240   2.144037
     9  H    2.805933   3.142549   2.646175   3.816518   2.164445
    10  C    3.932330   4.166150   4.290695   4.763118   2.597692
    11  H    4.178894   4.316823   4.774440   4.869647   2.802685
    12  H    4.314173   4.782428   4.571335   5.037140   2.877410
    13  C    5.078104   5.120747   5.288768   6.027797   3.952594
    14  H    5.227320   5.334692   5.208208   6.233717   4.250075
    15  H    5.117409   4.924249   5.389364   6.099736   4.198376
    16  C    6.453098   6.536505   6.725380   7.328672   5.178422
    17  H    6.578226   6.613350   7.016987   7.366760   5.249678
    18  C    7.596000   7.540241   7.796960   8.544772   6.464174
    19  H    7.755662   7.730464   7.804367   8.755632   6.717328
    20  H    8.548636   8.523398   8.786218   9.459434   7.339556
    21  H    7.569238   7.357098   7.830403   8.530285   6.556808
    22  C    2.524790   3.479677   2.817817   2.748218   1.534990
    23  H    2.737169   3.722265   3.148305   2.505052   2.161326
    24  H    3.493222   4.341028   3.828955   3.761895   2.197353
    25  C    6.954518   7.253413   7.133085   7.758883   5.578029
    26  H    7.843818   8.166220   8.078921   8.584504   6.406710
    27  H    6.762540   7.164792   6.787269   7.577421   5.454299
    28  O    2.982007   4.016879   2.719444   3.248077   2.503661
    29  O    3.841147   4.710449   3.458722   4.403395   3.110359
    30  H    4.657895   5.587767   4.242403   5.091350   3.949988
                    6          7          8          9         10
     6  H    0.000000
     7  C    2.145416   0.000000
     8  H    2.490718   1.097413   0.000000
     9  H    3.052520   1.094685   1.753886   0.000000
    10  C    2.771484   1.533111   2.151796   2.161212   0.000000
    11  H    2.524816   2.163505   2.524303   3.066704   1.098808
    12  H    3.149120   2.166691   3.061120   2.500535   1.093891
    13  C    4.176954   2.552828   2.739959   2.803825   1.533151
    14  H    4.722145   2.777345   3.044676   2.580070   2.162189
    15  H    4.328372   2.773988   2.506479   3.132476   2.158411
    16  C    5.232902   3.944433   4.192316   4.241138   2.582819
    17  H    5.071394   4.203231   4.380949   4.742801   2.772146
    18  C    6.554410   5.088043   5.112672   5.257322   3.930999
    19  H    6.976084   5.260395   5.315584   5.202170   4.276917
    20  H    7.356836   6.035565   6.112437   6.243251   4.758571
    21  H    6.571539   5.167238   4.959936   5.430918   4.172826
    22  C    2.101341   2.590180   3.502436   2.848865   3.179153
    23  H    2.403386   3.518611   4.295853   3.848469   4.141128
    24  H    2.468845   2.848719   3.851537   3.192603   2.866047
    25  C    5.729737   4.517543   5.064395   4.647290   3.117202
    26  H    6.451018   5.465676   6.022849   5.665395   4.001501
    27  H    5.799498   4.407021   5.082313   4.298364   3.221880
    28  O    3.376609   3.188105   4.125062   2.919865   3.923013
    29  O    4.031964   3.076067   4.084698   2.500639   3.492634
    30  H    4.808454   4.015243   5.042421   3.455236   4.275713
                   11         12         13         14         15
    11  H    0.000000
    12  H    1.756509   0.000000
    13  C    2.157265   2.153821   0.000000
    14  H    3.064623   2.510771   1.098341   0.000000
    15  H    2.504077   3.057277   1.096938   1.754783   0.000000
    16  C    2.809426   2.802722   1.540373   2.159756   2.159267
    17  H    2.547930   3.075446   2.152210   3.055908   2.514509
    18  C    4.181365   4.268065   2.541227   2.813263   2.674657
    19  H    4.765250   4.540866   2.801809   2.630672   2.998494
    20  H    4.886689   4.966897   3.499237   3.807769   3.696671
    21  H    4.297897   4.748158   2.781041   3.184656   2.460598
    22  C    3.462370   2.888244   4.616985   4.797418   5.160264
    23  H    4.234620   3.875215   5.626461   5.870797   6.110886
    24  H    3.067036   2.290613   4.305975   4.575611   5.004520
    25  C    3.475542   2.767080   2.523026   2.746814   3.450768
    26  H    4.160674   3.574872   3.515044   3.821945   4.365745
    27  H    3.852856   2.669150   2.747909   2.576564   3.782073
    28  O    4.505143   3.500501   5.131741   5.001678   5.747636
    29  O    4.328838   2.914865   4.385778   4.034342   5.147155
    30  H    5.072165   3.535102   5.127657   4.737918   5.970069
                   16         17         18         19         20
    16  C    0.000000
    17  H    1.100255   0.000000
    18  C    1.550299   2.141503   0.000000
    19  H    2.190744   3.063054   1.094075   0.000000
    20  H    2.196287   2.497199   1.093011   1.768256   0.000000
    21  H    2.190089   2.467664   1.094950   1.773038   1.771790
    22  C    5.622885   5.743269   7.039336   7.245888   7.814526
    23  H    6.589321   6.602739   8.034458   8.295378   8.781292
    24  H    5.053784   5.120481   6.546283   6.819073   7.213549
    25  C    1.494517   2.115013   2.505041   2.798851   2.740342
    26  H    2.251190   2.496015   3.003225   3.416779   2.832279
    27  H    2.252410   3.059314   3.154971   3.093922   3.521427
    28  O    6.200176   6.541616   7.519069   7.523671   8.329460
    29  O    5.362028   5.900881   6.578803   6.445030   7.368558
    30  H    5.938673   6.493007   7.155967   6.984482   7.866480
                   21         22         23         24         25
    21  H    0.000000
    22  C    7.345315   0.000000
    23  H    8.307001   1.096052   0.000000
    24  H    6.959805   1.093945   1.773916   0.000000
    25  C    3.454546   5.616838   6.576842   4.867687   0.000000
    26  H    3.969905   6.335665   7.221142   5.473921   1.084186
    27  H    4.118620   5.331751   6.334244   4.634279   1.084892
    28  O    7.911940   1.430908   1.976914   2.065914   6.029155
    29  O    7.092537   2.343664   3.221435   2.465518   5.036157
    30  H    7.766633   2.919998   3.619701   2.889726   5.389977
                   26         27         28         29         30
    26  H    0.000000
    27  H    1.855534   0.000000
    28  O    6.806878   5.495277   0.000000
    29  O    5.857621   4.338800   1.460620   0.000000
    30  H    6.106753   4.599231   1.884498   0.967262   0.000000
 Stoichiometry    C9H19O2(2)
 Framework group  C1[X(C9H19O2)]
 Deg. of freedom    84
 Full point group                 C1      NOp   1
 Largest Abelian subgroup         C1      NOp   1
 Largest concise Abelian subgroup C1      NOp   1
                         Standard orientation:                         
 ---------------------------------------------------------------------
 Center     Atomic      Atomic             Coordinates (Angstroms)
 Number     Number       Type             X           Y           Z
 ---------------------------------------------------------------------
      1          6           0       -3.100306   -1.677721   -0.271251
      2          1           0       -2.803976   -2.707563   -0.488016
      3          1           0       -3.328943   -1.183628   -1.218788
      4          1           0       -4.022222   -1.711326    0.317711
      5          6           0       -1.983479   -0.934423    0.475746
      6          1           0       -1.804645   -1.456242    1.428304
      7          6           0       -0.664983   -0.967031   -0.322311
      8          1           0       -0.476074   -2.010654   -0.604232
      9          1           0       -0.797059   -0.415367   -1.258558
     10          6           0        0.564125   -0.429828    0.420074
     11          1           0        0.668927   -0.952361    1.380987
     12          1           0        0.425274    0.629135    0.656538
     13          6           0        1.860077   -0.596301   -0.382015
     14          1           0        1.759894   -0.082451   -1.347559
     15          1           0        2.005476   -1.658202   -0.615466
     16          6           0        3.120003   -0.068796    0.330077
     17          1           0        3.185253   -0.558049    1.313406
     18          6           0        4.397392   -0.472817   -0.449968
     19          1           0        4.388031   -0.043411   -1.456210
     20          1           0        5.298724   -0.119725    0.057574
     21          1           0        4.463137   -1.561763   -0.543725
     22          6           0       -2.449306    0.469146    0.887077
     23          1           0       -3.346769    0.385316    1.510666
     24          1           0       -1.687248    1.009653    1.456142
     25          6           0        3.077680    1.409560    0.545145
     26          1           0        3.714159    1.881124    1.285403
     27          1           0        2.536615    2.055816   -0.137931
     28          8           0       -2.905760    1.296748   -0.187271
     29          8           0       -1.738257    1.866021   -0.855310
     30          1           0       -1.953641    2.806805   -0.791033
 ---------------------------------------------------------------------
 Rotational constants (GHZ):      1.8416921      0.4381034      0.3857577
 Leave Link  202 at Sun Feb  9 03:16:24 2014, MaxMem= 4026531840 cpu:       0.5
 (Enter /usr/caen/gaussian-09revc/g09/l301.exe)
 Standard basis: 6-311++G(d,p) (5D, 7F)
 Ernie: Thresh=  0.10000D-02 Tol=  0.10000D-05 Strict=F.
 There are   375 symmetry adapted basis functions of A   symmetry.
 Integral buffers will be    131072 words long.
 Raffenetti 2 integral format.
 Two-electron integral symmetry is turned on.
   375 basis functions,   567 primitive gaussians,   386 cartesian basis functions
    45 alpha electrons       44 beta electrons
       nuclear repulsion energy       649.6904692045 Hartrees.
 IExCor=  402 DFT=T Ex+Corr=B3LYP ExCW=0 ScaHFX=  0.200000
 ScaDFX=  0.800000  0.720000  1.000000  0.810000 ScalE2=  1.000000  1.000000
 IRadAn=      0 IRanWt=     -1 IRanGd=            0 ICorTp=0
 NAtoms=   30 NActive=   30 NUniq=   30 SFac= 1.00D+00 NAtFMM=   60 NAOKFM=F Big=F
 Leave Link  301 at Sun Feb  9 03:16:25 2014, MaxMem= 4026531840 cpu:       5.7
 (Enter /usr/caen/gaussian-09revc/g09/l302.exe)
 NPDir=0 NMtPBC=     1 NCelOv=     1 NCel=       1 NClECP=     1 NCelD=      1
         NCelK=      1 NCelE2=     1 NClLst=     1 CellRange=     0.0.
 One-electron integrals computed using PRISM.
 NBasis=   375 RedAO= T  NBF=   375
 NBsUse=   375 1.00D-06 NBFU=   375
 Precomputing XC quadrature grid using
 IXCGrd= 2 IRadAn=           0 IRanWt=          -1 IRanGd=           0 AccXCQ= 0.00D+00.
 NRdTot=    1961 NPtTot=      250122 NUsed=      264252 NTot=      264284
 NSgBfM=   386   386   386   386   386 NAtAll=    30    30.
 Leave Link  302 at Sun Feb  9 03:16:27 2014, MaxMem= 4026531840 cpu:       8.7
 (Enter /usr/caen/gaussian-09revc/g09/l303.exe)
 DipDrv:  MaxL=1.
 Leave Link  303 at Sun Feb  9 03:16:27 2014, MaxMem= 4026531840 cpu:       1.8
 (Enter /usr/caen/gaussian-09revc/g09/l401.exe)
 Harris functional with IExCor=  402 diagonalized for initial guess.
 ExpMin= 3.60D-02 ExpMax= 8.59D+03 ExpMxC= 1.30D+03 IAcc=3 IRadAn=         5 AccDes= 0.00D+00
 HarFok:  IExCor=  402 AccDes= 0.00D+00 IRadAn=         5 IDoV= 1
 ScaDFX=  1.000000  1.000000  1.000000  1.000000
 FoFCou: FMM=F IPFlag=           0 FMFlag=      100000 FMFlg1=           0
         NFxFlg=           0 DoJE=T BraDBF=F KetDBF=T FulRan=T
         Omega=  0.000000  0.000000  1.000000  0.000000  0.000000 ICntrl=     500 IOpCl=  0
         NMat0=    1 NMatS0=    1 NMatT0=    0 NMatD0=    1 NMtDS0=    0 NMtDT0=    0
         I1Cent=           4 NGrid=           0.
 Petite list used in FoFCou.
 Harris En= -504.891692680367    
 Mixing orbitals, IMix= 1 IMixAn=  0 NRI=1 NE=   45 Coef=  7.07106781D-01  7.07106781D-01
 Mixing orbitals, IMix= 1 IMixAn=  0 NRI=1 NE=   44 Coef= -7.07106781D-01  7.07106781D-01
 Initial guess orbital symmetries:
 Alpha Orbitals:
       Occupied  (A) (A) (A) (A) (A) (A) (A) (A) (A) (A) (A) (A)
                 (A) (A) (A) (A) (A) (A) (A) (A) (A) (A) (A) (A)
                 (A) (A) (A) (A) (A) (A) (A) (A) (A) (A) (A) (A)
                 (A) (A) (A) (A) (A) (A) (A) (A) (A)
       Virtual   (A) (A) (A) (A) (A) (A) (A) (A) (A) (A) (A) (A)
                 (A) (A) (A) (A) (A) (A) (A) (A) (A) (A) (A) (A)
                 (A) (A) (A) (A) (A) (A) (A) (A) (A) (A) (A) (A)
                 (A) (A) (A) (A) (A) (A) (A) (A) (A) (A) (A) (A)
                 (A) (A) (A) (A) (A) (A) (A) (A) (A) (A) (A) (A)
                 (A) (A) (A) (A) (A) (A) (A) (A) (A) (A) (A) (A)
                 (A) (A) (A) (A) (A) (A) (A) (A) (A) (A) (A) (A)
                 (A) (A) (A) (A) (A) (A) (A) (A) (A) (A) (A) (A)
                 (A) (A) (A) (A) (A) (A) (A) (A) (A) (A) (A) (A)
                 (A) (A) (A) (A) (A) (A) (A) (A) (A) (A) (A) (A)
                 (A) (A) (A) (A) (A) (A) (A) (A) (A) (A) (A) (A)
                 (A) (A) (A) (A) (A) (A) (A) (A) (A) (A) (A) (A)
                 (A) (A) (A) (A) (A) (A) (A) (A) (A) (A) (A) (A)
                 (A) (A) (A) (A) (A) (A) (A) (A) (A) (A) (A) (A)
                 (A) (A) (A) (A) (A) (A) (A) (A) (A) (A) (A) (A)
                 (A) (A) (A) (A) (A) (A) (A) (A) (A) (A) (A) (A)
                 (A) (A) (A) (A) (A) (A) (A) (A) (A) (A) (A) (A)
                 (A) (A) (A) (A) (A) (A) (A) (A) (A) (A) (A) (A)
                 (A) (A) (A) (A) (A) (A) (A) (A) (A) (A) (A) (A)
                 (A) (A) (A) (A) (A) (A) (A) (A) (A) (A) (A) (A)
                 (A) (A) (A) (A) (A) (A) (A) (A) (A) (A) (A) (A)
                 (A) (A) (A) (A) (A) (A) (A) (A) (A) (A) (A) (A)
                 (A) (A) (A) (A) (A) (A) (A) (A) (A) (A) (A) (A)
                 (A) (A) (A) (A) (A) (A) (A) (A) (A) (A) (A) (A)
                 (A) (A) (A) (A) (A) (A) (A) (A) (A) (A) (A) (A)
                 (A) (A) (A) (A) (A) (A) (A) (A) (A) (A) (A) (A)
                 (A) (A) (A) (A) (A) (A) (A) (A) (A) (A) (A) (A)
                 (A) (A) (A) (A) (A) (A)
 Beta  Orbitals:
       Occupied  (A) (A) (A) (A) (A) (A) (A) (A) (A) (A) (A) (A)
                 (A) (A) (A) (A) (A) (A) (A) (A) (A) (A) (A) (A)
                 (A) (A) (A) (A) (A) (A) (A) (A) (A) (A) (A) (A)
                 (A) (A) (A) (A) (A) (A) (A) (A)
       Virtual   (A) (A) (A) (A) (A) (A) (A) (A) (A) (A) (A) (A)
                 (A) (A) (A) (A) (A) (A) (A) (A) (A) (A) (A) (A)
                 (A) (A) (A) (A) (A) (A) (A) (A) (A) (A) (A) (A)
                 (A) (A) (A) (A) (A) (A) (A) (A) (A) (A) (A) (A)
                 (A) (A) (A) (A) (A) (A) (A) (A) (A) (A) (A) (A)
                 (A) (A) (A) (A) (A) (A) (A) (A) (A) (A) (A) (A)
                 (A) (A) (A) (A) (A) (A) (A) (A) (A) (A) (A) (A)
                 (A) (A) (A) (A) (A) (A) (A) (A) (A) (A) (A) (A)
                 (A) (A) (A) (A) (A) (A) (A) (A) (A) (A) (A) (A)
                 (A) (A) (A) (A) (A) (A) (A) (A) (A) (A) (A) (A)
                 (A) (A) (A) (A) (A) (A) (A) (A) (A) (A) (A) (A)
                 (A) (A) (A) (A) (A) (A) (A) (A) (A) (A) (A) (A)
                 (A) (A) (A) (A) (A) (A) (A) (A) (A) (A) (A) (A)
                 (A) (A) (A) (A) (A) (A) (A) (A) (A) (A) (A) (A)
                 (A) (A) (A) (A) (A) (A) (A) (A) (A) (A) (A) (A)
                 (A) (A) (A) (A) (A) (A) (A) (A) (A) (A) (A) (A)
                 (A) (A) (A) (A) (A) (A) (A) (A) (A) (A) (A) (A)
                 (A) (A) (A) (A) (A) (A) (A) (A) (A) (A) (A) (A)
                 (A) (A) (A) (A) (A) (A) (A) (A) (A) (A) (A) (A)
                 (A) (A) (A) (A) (A) (A) (A) (A) (A) (A) (A) (A)
                 (A) (A) (A) (A) (A) (A) (A) (A) (A) (A) (A) (A)
                 (A) (A) (A) (A) (A) (A) (A) (A) (A) (A) (A) (A)
                 (A) (A) (A) (A) (A) (A) (A) (A) (A) (A) (A) (A)
                 (A) (A) (A) (A) (A) (A) (A) (A) (A) (A) (A) (A)
                 (A) (A) (A) (A) (A) (A) (A) (A) (A) (A) (A) (A)
                 (A) (A) (A) (A) (A) (A) (A) (A) (A) (A) (A) (A)
                 (A) (A) (A) (A) (A) (A) (A) (A) (A) (A) (A) (A)
                 (A) (A) (A) (A) (A) (A) (A)
 The electronic state of the initial guess is 2-A.
 Initial guess <Sx>= 0.0000 <Sy>= 0.0000 <Sz>= 0.5000 <S**2>= 1.0000 S= 0.6180
 Leave Link  401 at Sun Feb  9 03:16:33 2014, MaxMem= 4026531840 cpu:      35.4
 (Enter /usr/caen/gaussian-09revc/g09/l502.exe)
 UHF open shell SCF:
 Requested convergence on RMS density matrix=1.00D-08 within 128 cycles.
 Requested convergence on MAX density matrix=1.00D-06.
 Requested convergence on             energy=1.00D-06.
 No special actions if energy rises.
 Using DIIS extrapolation, IDIIS=  1040.
 Integral symmetry usage will be decided dynamically.
       263969 words used for storage of precomputed grid.
 IEnd=      735103 IEndB=      735103 NGot=  4026531840 MDV=  4025962760
 LenX=  4025962760 LenY=  4025813323
 Fock matrices will be formed incrementally for  20 cycles.

 Cycle   1  Pass 1  IDiag  1:
 FoFCou: FMM=F IPFlag=           0 FMFlag=      100000 FMFlg1=           0
         NFxFlg=           0 DoJE=F BraDBF=F KetDBF=F FulRan=T
         Omega=  0.000000  0.000000  1.000000  0.000000  0.000000 ICntrl=       0 IOpCl=  1
         NMat0=    1 NMatS0=    1 NMatT0=    0 NMatD0=    1 NMtDS0=    0 NMtDT0=    0
         I1Cent=           0 NGrid=           0.
 Symmetry not used in FoFCou.
 E= -504.351685038617    
 DIIS: error= 2.57D-02 at cycle   1 NSaved=   1.
 NSaved= 1 IEnMin= 1 EnMin= -504.351685038617     IErMin= 1 ErrMin= 2.57D-02
 ErrMax= 2.57D-02 EMaxC= 1.00D-01 BMatC= 1.46D+00 BMatP= 1.46D+00
 IDIUse=3 WtCom= 7.43D-01 WtEn= 2.57D-01
 Coeff-Com:  0.100D+01
 Coeff-En:   0.100D+01
 Coeff:      0.100D+01
 Gap=     0.020 Goal=   None    Shift=    0.000
 Gap=     0.018 Goal=   None    Shift=    0.000
 GapD=    0.018 DampG=0.250 DampE=0.500 DampFc=0.2500 IDamp=-1.
 Damping current iteration by 2.50D-01
 RMSDP=1.87D-02 MaxDP=2.69D+00              OVMax= 6.26D-01

 Cycle   2  Pass 1  IDiag  1:
 RMSU=  3.56D-03    CP:  9.12D-01
 E= -504.499570766393     Delta-E=       -0.147885727777 Rises=F Damp=T
 DIIS: error= 1.13D-02 at cycle   2 NSaved=   2.
 NSaved= 2 IEnMin= 2 EnMin= -504.499570766393     IErMin= 2 ErrMin= 1.13D-02
 ErrMax= 1.13D-02 EMaxC= 1.00D-01 BMatC= 3.59D-01 BMatP= 1.46D+00
 IDIUse=3 WtCom= 8.87D-01 WtEn= 1.13D-01
 Coeff-Com: -0.762D+00 0.176D+01
 Coeff-En:   0.000D+00 0.100D+01
 Coeff:     -0.675D+00 0.168D+01
 Gap=     0.109 Goal=   None    Shift=    0.000
 Gap=     0.192 Goal=   None    Shift=    0.000
 RMSDP=7.46D-03 MaxDP=7.44D-01 DE=-1.48D-01 OVMax= 3.62D-01

 Cycle   3  Pass 1  IDiag  1:
 RMSU=  5.25D-03    CP:  7.53D-01  8.51D-01
 E= -504.825630785285     Delta-E=       -0.326060018891 Rises=F Damp=F
 DIIS: error= 8.64D-03 at cycle   3 NSaved=   3.
 NSaved= 3 IEnMin= 3 EnMin= -504.825630785285     IErMin= 3 ErrMin= 8.64D-03
 ErrMax= 8.64D-03 EMaxC= 1.00D-01 BMatC= 8.11D-02 BMatP= 3.59D-01
 IDIUse=3 WtCom= 9.14D-01 WtEn= 8.64D-02
 Coeff-Com: -0.381D+00 0.833D+00 0.547D+00
 Coeff-En:   0.000D+00 0.000D+00 0.100D+01
 Coeff:     -0.348D+00 0.761D+00 0.586D+00
 Gap=     0.155 Goal=   None    Shift=    0.000
 Gap=     0.178 Goal=   None    Shift=    0.000
 RMSDP=1.88D-03 MaxDP=1.95D-01 DE=-3.26D-01 OVMax= 6.20D-02

 Cycle   4  Pass 1  IDiag  1:
 RMSU=  1.30D-03    CP:  7.56D-01  8.51D-01  9.37D-01
 E= -504.835130923667     Delta-E=       -0.009500138382 Rises=F Damp=F
 DIIS: error= 6.55D-03 at cycle   4 NSaved=   4.
 NSaved= 4 IEnMin= 4 EnMin= -504.835130923667     IErMin= 4 ErrMin= 6.55D-03
 ErrMax= 6.55D-03 EMaxC= 1.00D-01 BMatC= 4.47D-02 BMatP= 8.11D-02
 IDIUse=3 WtCom= 9.35D-01 WtEn= 6.55D-02
 Coeff-Com: -0.799D-01 0.160D+00 0.414D+00 0.506D+00
 Coeff-En:   0.000D+00 0.000D+00 0.321D+00 0.679D+00
 Coeff:     -0.747D-01 0.149D+00 0.408D+00 0.517D+00
 Gap=     0.179 Goal=   None    Shift=    0.000
 Gap=     0.198 Goal=   None    Shift=    0.000
 RMSDP=1.20D-03 MaxDP=1.77D-01 DE=-9.50D-03 OVMax= 2.34D-02

 Cycle   5  Pass 1  IDiag  1:
 RMSU=  6.12D-04    CP:  7.24D-01  8.22D-01  9.38D-01  8.98D-01
 E= -504.843582742505     Delta-E=       -0.008451818838 Rises=F Damp=F
 DIIS: error= 1.04D-03 at cycle   5 NSaved=   5.
 NSaved= 5 IEnMin= 5 EnMin= -504.843582742505     IErMin= 5 ErrMin= 1.04D-03
 ErrMax= 1.04D-03 EMaxC= 1.00D-01 BMatC= 1.84D-03 BMatP= 4.47D-02
 IDIUse=3 WtCom= 9.90D-01 WtEn= 1.04D-02
 Coeff-Com:  0.325D-03-0.757D-02 0.474D-01 0.174D+00 0.786D+00
 Coeff-En:   0.000D+00 0.000D+00 0.000D+00 0.000D+00 0.100D+01
 Coeff:      0.321D-03-0.749D-02 0.469D-01 0.172D+00 0.788D+00
 Gap=     0.189 Goal=   None    Shift=    0.000
 Gap=     0.201 Goal=   None    Shift=    0.000
 RMSDP=4.02D-04 MaxDP=6.30D-02 DE=-8.45D-03 OVMax= 1.63D-02

 Cycle   6  Pass 1  IDiag  1:
 RMSU=  3.13D-04    CP:  7.27D-01  7.80D-01  9.37D-01  9.07D-01  9.84D-01
 E= -504.844011963001     Delta-E=       -0.000429220496 Rises=F Damp=F
 DIIS: error= 6.06D-04 at cycle   6 NSaved=   6.
 NSaved= 6 IEnMin= 6 EnMin= -504.844011963001     IErMin= 6 ErrMin= 6.06D-04
 ErrMax= 6.06D-04 EMaxC= 1.00D-01 BMatC= 4.78D-04 BMatP= 1.84D-03
 IDIUse=3 WtCom= 9.94D-01 WtEn= 6.06D-03
 Coeff-Com:  0.905D-02-0.198D-01-0.553D-01-0.145D-01 0.381D+00 0.699D+00
 Coeff-En:   0.000D+00 0.000D+00 0.000D+00 0.000D+00 0.000D+00 0.100D+01
 Coeff:      0.900D-02-0.197D-01-0.550D-01-0.144D-01 0.379D+00 0.701D+00
 Gap=     0.188 Goal=   None    Shift=    0.000
 Gap=     0.206 Goal=   None    Shift=    0.000
 RMSDP=1.47D-04 MaxDP=2.58D-02 DE=-4.29D-04 OVMax= 2.89D-03

 Cycle   7  Pass 1  IDiag  1:
 RMSU=  8.70D-05    CP:  7.27D-01  7.82D-01  9.34D-01  9.43D-01  1.03D+00
                    CP:  8.46D-01
 E= -504.844139948186     Delta-E=       -0.000127985185 Rises=F Damp=F
 DIIS: error= 1.39D-04 at cycle   7 NSaved=   7.
 NSaved= 7 IEnMin= 7 EnMin= -504.844139948186     IErMin= 7 ErrMin= 1.39D-04
 ErrMax= 1.39D-04 EMaxC= 1.00D-01 BMatC= 3.67D-05 BMatP= 4.78D-04
 IDIUse=3 WtCom= 9.99D-01 WtEn= 1.39D-03
 Coeff-Com: -0.134D-02 0.306D-02-0.192D-01-0.237D-01 0.290D-01 0.238D+00
 Coeff-Com:  0.775D+00
 Coeff-En:   0.000D+00 0.000D+00 0.000D+00 0.000D+00 0.000D+00 0.000D+00
 Coeff-En:   0.100D+01
 Coeff:     -0.134D-02 0.305D-02-0.192D-01-0.236D-01 0.289D-01 0.237D+00
 Coeff:      0.775D+00
 Gap=     0.188 Goal=   None    Shift=    0.000
 Gap=     0.205 Goal=   None    Shift=    0.000
 RMSDP=5.83D-05 MaxDP=7.73D-03 DE=-1.28D-04 OVMax= 1.39D-03

 Cycle   8  Pass 1  IDiag  1:
 RMSU=  4.38D-05    CP:  7.27D-01  7.83D-01  9.33D-01  9.38D-01  1.05D+00
                    CP:  8.80D-01  1.02D+00
 E= -504.844149856605     Delta-E=       -0.000009908419 Rises=F Damp=F
 DIIS: error= 4.36D-05 at cycle   8 NSaved=   8.
 NSaved= 8 IEnMin= 8 EnMin= -504.844149856605     IErMin= 8 ErrMin= 4.36D-05
 ErrMax= 4.36D-05 EMaxC= 1.00D-01 BMatC= 4.05D-06 BMatP= 3.67D-05
 IDIUse=1 WtCom= 1.00D+00 WtEn= 0.00D+00
 Coeff-Com: -0.111D-02 0.239D-02-0.119D-02-0.700D-02-0.239D-01 0.532D-02
 Coeff-Com:  0.248D+00 0.778D+00
 Coeff:     -0.111D-02 0.239D-02-0.119D-02-0.700D-02-0.239D-01 0.532D-02
 Coeff:      0.248D+00 0.778D+00
 Gap=     0.188 Goal=   None    Shift=    0.000
 Gap=     0.205 Goal=   None    Shift=    0.000
 RMSDP=1.91D-05 MaxDP=1.43D-03 DE=-9.91D-06 OVMax= 2.61D-04

 Cycle   9  Pass 1  IDiag  1:
 RMSU=  9.63D-06    CP:  7.27D-01  7.83D-01  9.33D-01  9.36D-01  1.05D+00
                    CP:  8.77D-01  1.09D+00  8.06D-01
 E= -504.844151079971     Delta-E=       -0.000001223366 Rises=F Damp=F
 DIIS: error= 2.01D-05 at cycle   9 NSaved=   9.
 NSaved= 9 IEnMin= 9 EnMin= -504.844151079971     IErMin= 9 ErrMin= 2.01D-05
 ErrMax= 2.01D-05 EMaxC= 1.00D-01 BMatC= 9.91D-07 BMatP= 4.05D-06
 IDIUse=1 WtCom= 1.00D+00 WtEn= 0.00D+00
 Coeff-Com: -0.289D-03 0.544D-03 0.253D-02 0.526D-03-0.167D-01-0.387D-01
 Coeff-Com: -0.179D-01 0.361D+00 0.709D+00
 Coeff:     -0.289D-03 0.544D-03 0.253D-02 0.526D-03-0.167D-01-0.387D-01
 Coeff:     -0.179D-01 0.361D+00 0.709D+00
 Gap=     0.188 Goal=   None    Shift=    0.000
 Gap=     0.205 Goal=   None    Shift=    0.000
 RMSDP=4.54D-06 MaxDP=3.65D-04 DE=-1.22D-06 OVMax= 1.18D-04

 Cycle  10  Pass 1  IDiag  1:
 RMSU=  2.45D-06    CP:  7.27D-01  7.83D-01  9.33D-01  9.37D-01  1.05D+00
                    CP:  8.78D-01  1.10D+00  8.41D-01  9.00D-01
 E= -504.844151358272     Delta-E=       -0.000000278301 Rises=F Damp=F
 DIIS: error= 6.11D-06 at cycle  10 NSaved=  10.
 NSaved=10 IEnMin=10 EnMin= -504.844151358272     IErMin=10 ErrMin= 6.11D-06
 ErrMax= 6.11D-06 EMaxC= 1.00D-01 BMatC= 1.19D-07 BMatP= 9.91D-07
 IDIUse=1 WtCom= 1.00D+00 WtEn= 0.00D+00
 Coeff-Com:  0.497D-04-0.124D-03 0.116D-02 0.110D-02-0.434D-02-0.171D-01
 Coeff-Com: -0.405D-01 0.630D-01 0.307D+00 0.690D+00
 Coeff:      0.497D-04-0.124D-03 0.116D-02 0.110D-02-0.434D-02-0.171D-01
 Coeff:     -0.405D-01 0.630D-01 0.307D+00 0.690D+00
 Gap=     0.188 Goal=   None    Shift=    0.000
 Gap=     0.205 Goal=   None    Shift=    0.000
 RMSDP=2.12D-06 MaxDP=2.11D-04 DE=-2.78D-07 OVMax= 4.20D-05

 Cycle  11  Pass 1  IDiag  1:
 RMSU=  9.32D-07    CP:  7.27D-01  7.83D-01  9.33D-01  9.37D-01  1.05D+00
                    CP:  8.78D-01  1.10D+00  8.59D-01  8.33D-01  9.10D-01
 E= -504.844151391386     Delta-E=       -0.000000033114 Rises=F Damp=F
 DIIS: error= 2.14D-06 at cycle  11 NSaved=  11.
 NSaved=11 IEnMin=11 EnMin= -504.844151391386     IErMin=11 ErrMin= 2.14D-06
 ErrMax= 2.14D-06 EMaxC= 1.00D-01 BMatC= 1.05D-08 BMatP= 1.19D-07
 IDIUse=1 WtCom= 1.00D+00 WtEn= 0.00D+00
 Coeff-Com:  0.403D-04-0.692D-04 0.336D-04 0.311D-03 0.805D-03 0.632D-03
 Coeff-Com: -0.860D-02-0.335D-01-0.147D-01 0.200D+00 0.856D+00
 Coeff:      0.403D-04-0.692D-04 0.336D-04 0.311D-03 0.805D-03 0.632D-03
 Coeff:     -0.860D-02-0.335D-01-0.147D-01 0.200D+00 0.856D+00
 Gap=     0.188 Goal=   None    Shift=    0.000
 Gap=     0.205 Goal=   None    Shift=    0.000
 RMSDP=1.11D-06 MaxDP=1.05D-04 DE=-3.31D-08 OVMax= 2.08D-05

 Cycle  12  Pass 1  IDiag  1:
 RMSU=  4.48D-07    CP:  7.27D-01  7.83D-01  9.33D-01  9.37D-01  1.05D+00
                    CP:  8.79D-01  1.09D+00  8.50D-01  8.44D-01  9.95D-01
                    CP:  9.87D-01
 E= -504.844151395929     Delta-E=       -0.000000004543 Rises=F Damp=F
 DIIS: error= 1.12D-06 at cycle  12 NSaved=  12.
 NSaved=12 IEnMin=12 EnMin= -504.844151395929     IErMin=12 ErrMin= 1.12D-06
 ErrMax= 1.12D-06 EMaxC= 1.00D-01 BMatC= 1.99D-09 BMatP= 1.05D-08
 IDIUse=1 WtCom= 1.00D+00 WtEn= 0.00D+00
 Coeff-Com:  0.140D-04-0.218D-04-0.110D-03 0.447D-05 0.825D-03 0.204D-02
 Coeff-Com:  0.885D-03-0.194D-01-0.384D-01-0.127D-02 0.326D+00 0.729D+00
 Coeff:      0.140D-04-0.218D-04-0.110D-03 0.447D-05 0.825D-03 0.204D-02
 Coeff:      0.885D-03-0.194D-01-0.384D-01-0.127D-02 0.326D+00 0.729D+00
 Gap=     0.188 Goal=   None    Shift=    0.000
 Gap=     0.205 Goal=   None    Shift=    0.000
 RMSDP=3.05D-07 MaxDP=1.93D-05 DE=-4.54D-09 OVMax= 1.00D-05

 Cycle  13  Pass 1  IDiag  1:
 RMSU=  1.59D-07    CP:  7.27D-01  7.83D-01  9.33D-01  9.37D-01  1.05D+00
                    CP:  8.79D-01  1.09D+00  8.47D-01  8.45D-01  9.92D-01
                    CP:  1.04D+00  9.71D-01
 E= -504.844151396789     Delta-E=       -0.000000000859 Rises=F Damp=F
 DIIS: error= 6.45D-07 at cycle  13 NSaved=  13.
 NSaved=13 IEnMin=13 EnMin= -504.844151396789     IErMin=13 ErrMin= 6.45D-07
 ErrMax= 6.45D-07 EMaxC= 1.00D-01 BMatC= 5.37D-10 BMatP= 1.99D-09
 IDIUse=1 WtCom= 1.00D+00 WtEn= 0.00D+00
 Coeff-Com: -0.906D-05 0.169D-04-0.523D-04-0.791D-04 0.174D-03 0.742D-03
 Coeff-Com:  0.254D-02-0.581D-03-0.132D-01-0.474D-01-0.623D-01 0.307D+00
 Coeff-Com:  0.813D+00
 Coeff:     -0.906D-05 0.169D-04-0.523D-04-0.791D-04 0.174D-03 0.742D-03
 Coeff:      0.254D-02-0.581D-03-0.132D-01-0.474D-01-0.623D-01 0.307D+00
 Coeff:      0.813D+00
 Gap=     0.188 Goal=   None    Shift=    0.000
 Gap=     0.205 Goal=   None    Shift=    0.000
 RMSDP=1.52D-07 MaxDP=1.42D-05 DE=-8.59D-10 OVMax= 6.89D-06

 Cycle  14  Pass 1  IDiag  1:
 RMSU=  6.51D-08    CP:  7.27D-01  7.83D-01  9.33D-01  9.37D-01  1.05D+00
                    CP:  8.78D-01  1.09D+00  8.47D-01  8.40D-01  9.96D-01
                    CP:  1.07D+00  1.05D+00  9.97D-01
 E= -504.844151397114     Delta-E=       -0.000000000325 Rises=F Damp=F
 DIIS: error= 2.54D-07 at cycle  14 NSaved=  14.
 NSaved=14 IEnMin=14 EnMin= -504.844151397114     IErMin=14 ErrMin= 2.54D-07
 ErrMax= 2.54D-07 EMaxC= 1.00D-01 BMatC= 1.03D-10 BMatP= 5.37D-10
 IDIUse=1 WtCom= 1.00D+00 WtEn= 0.00D+00
 Coeff-Com: -0.820D-05 0.132D-04 0.170D-04-0.271D-04-0.200D-03-0.423D-03
 Coeff-Com:  0.472D-03 0.568D-02 0.759D-02-0.135D-01-0.113D+00-0.117D+00
 Coeff-Com:  0.241D+00 0.990D+00
 Coeff:     -0.820D-05 0.132D-04 0.170D-04-0.271D-04-0.200D-03-0.423D-03
 Coeff:      0.472D-03 0.568D-02 0.759D-02-0.135D-01-0.113D+00-0.117D+00
 Coeff:      0.241D+00 0.990D+00
 Gap=     0.188 Goal=   None    Shift=    0.000
 Gap=     0.205 Goal=   None    Shift=    0.000
 RMSDP=9.44D-08 MaxDP=1.30D-05 DE=-3.25D-10 OVMax= 4.89D-06

 Cycle  15  Pass 1  IDiag  1:
 RMSU=  5.02D-08    CP:  7.27D-01  7.83D-01  9.33D-01  9.37D-01  1.05D+00
                    CP:  8.78D-01  1.09D+00  8.47D-01  8.42D-01  9.99D-01
                    CP:  1.07D+00  1.07D+00  1.05D+00  9.64D-01
 E= -504.844151397200     Delta-E=       -0.000000000086 Rises=F Damp=F
 DIIS: error= 1.09D-07 at cycle  15 NSaved=  15.
 NSaved=15 IEnMin=15 EnMin= -504.844151397200     IErMin=15 ErrMin= 1.09D-07
 ErrMax= 1.09D-07 EMaxC= 1.00D-01 BMatC= 2.18D-11 BMatP= 1.03D-10
 IDIUse=1 WtCom= 1.00D+00 WtEn= 0.00D+00
 Coeff-Com: -0.235D-05 0.364D-05 0.152D-04 0.280D-05-0.126D-03-0.302D-03
 Coeff-Com: -0.230D-03 0.240D-02 0.539D-02 0.327D-02-0.336D-01-0.102D+00
 Coeff-Com: -0.517D-01 0.393D+00 0.784D+00
 Coeff:     -0.235D-05 0.364D-05 0.152D-04 0.280D-05-0.126D-03-0.302D-03
 Coeff:     -0.230D-03 0.240D-02 0.539D-02 0.327D-02-0.336D-01-0.102D+00
 Coeff:     -0.517D-01 0.393D+00 0.784D+00
 Gap=     0.188 Goal=   None    Shift=    0.000
 Gap=     0.205 Goal=   None    Shift=    0.000
 RMSDP=5.32D-08 MaxDP=7.39D-06 DE=-8.64D-11 OVMax= 1.60D-06

 Cycle  16  Pass 1  IDiag  1:
 RMSU=  1.79D-08    CP:  7.27D-01  7.83D-01  9.33D-01  9.37D-01  1.05D+00
                    CP:  8.78D-01  1.09D+00  8.47D-01  8.43D-01  1.00D+00
                    CP:  1.07D+00  1.07D+00  1.04D+00  1.12D+00  1.09D+00
 E= -504.844151397213     Delta-E=       -0.000000000013 Rises=F Damp=F
 DIIS: error= 3.48D-08 at cycle  16 NSaved=  16.
 NSaved=16 IEnMin=16 EnMin= -504.844151397213     IErMin=16 ErrMin= 3.48D-08
 ErrMax= 3.48D-08 EMaxC= 1.00D-01 BMatC= 3.90D-12 BMatP= 2.18D-11
 IDIUse=1 WtCom= 1.00D+00 WtEn= 0.00D+00
 Coeff-Com:  0.449D-06-0.733D-06 0.230D-05 0.590D-05-0.157D-04-0.389D-04
 Coeff-Com: -0.167D-03-0.573D-04 0.759D-03 0.367D-02 0.684D-02-0.208D-01
 Coeff-Com: -0.665D-01-0.205D-01 0.337D+00 0.760D+00
 Coeff:      0.449D-06-0.733D-06 0.230D-05 0.590D-05-0.157D-04-0.389D-04
 Coeff:     -0.167D-03-0.573D-04 0.759D-03 0.367D-02 0.684D-02-0.208D-01
 Coeff:     -0.665D-01-0.205D-01 0.337D+00 0.760D+00
 Gap=     0.188 Goal=   None    Shift=    0.000
 Gap=     0.205 Goal=   None    Shift=    0.000
 RMSDP=1.75D-08 MaxDP=1.61D-06 DE=-1.27D-11 OVMax= 4.96D-07

 Cycle  17  Pass 1  IDiag  1:
 RMSU=  5.69D-09    CP:  7.27D-01  7.83D-01  9.33D-01  9.37D-01  1.05D+00
                    CP:  8.78D-01  1.09D+00  8.48D-01  8.43D-01  1.00D+00
                    CP:  1.07D+00  1.07D+00  1.06D+00  1.16D+00  1.14D+00
                    CP:  8.65D-01
 E= -504.844151397219     Delta-E=       -0.000000000006 Rises=F Damp=F
 DIIS: error= 1.16D-08 at cycle  17 NSaved=  17.
 NSaved=17 IEnMin=17 EnMin= -504.844151397219     IErMin=17 ErrMin= 1.16D-08
 ErrMax= 1.16D-08 EMaxC= 1.00D-01 BMatC= 2.92D-13 BMatP= 3.90D-12
 IDIUse=1 WtCom= 1.00D+00 WtEn= 0.00D+00
 Coeff-Com:  0.371D-06-0.562D-06-0.957D-06 0.124D-05 0.108D-04 0.249D-04
 Coeff-Com: -0.178D-04-0.298D-03-0.443D-03 0.533D-03 0.586D-02 0.700D-02
 Coeff-Com: -0.104D-01-0.544D-01-0.991D-02 0.203D+00 0.859D+00
 Coeff:      0.371D-06-0.562D-06-0.957D-06 0.124D-05 0.108D-04 0.249D-04
 Coeff:     -0.178D-04-0.298D-03-0.443D-03 0.533D-03 0.586D-02 0.700D-02
 Coeff:     -0.104D-01-0.544D-01-0.991D-02 0.203D+00 0.859D+00
 Gap=     0.188 Goal=   None    Shift=    0.000
 Gap=     0.205 Goal=   None    Shift=    0.000
 RMSDP=5.67D-09 MaxDP=4.04D-07 DE=-6.37D-12 OVMax= 1.16D-07

 SCF Done:  E(UB3LYP) =  -504.844151397     A.U. after   17 cycles
             Convg  =    0.5672D-08             -V/T =  2.0045
 <Sx>= 0.0000 <Sy>= 0.0000 <Sz>= 0.5000 <S**2>= 0.7538 S= 0.5019
 <L.S>= 0.000000000000E+00
 KE= 5.025982276098D+02 PE=-2.475687570058D+03 EE= 8.185547218469D+02
 Annihilation of the first spin contaminant:
 S**2 before annihilation     0.7538,   after     0.7500
 Leave Link  502 at Sun Feb  9 03:20:56 2014, MaxMem= 4026531840 cpu:    1968.7
 (Enter /usr/caen/gaussian-09revc/g09/l601.exe)
 Copying SCF densities to generalized density rwf, IOpCl= 1 IROHF=0.

 **********************************************************************

            Population analysis using the SCF density.

 **********************************************************************

 Orbital symmetries:
 Alpha Orbitals:
       Occupied  (A) (A) (A) (A) (A) (A) (A) (A) (A) (A) (A) (A)
                 (A) (A) (A) (A) (A) (A) (A) (A) (A) (A) (A) (A)
                 (A) (A) (A) (A) (A) (A) (A) (A) (A) (A) (A) (A)
                 (A) (A) (A) (A) (A) (A) (A) (A) (A)
       Virtual   (A) (A) (A) (A) (A) (A) (A) (A) (A) (A) (A) (A)
                 (A) (A) (A) (A) (A) (A) (A) (A) (A) (A) (A) (A)
                 (A) (A) (A) (A) (A) (A) (A) (A) (A) (A) (A) (A)
                 (A) (A) (A) (A) (A) (A) (A) (A) (A) (A) (A) (A)
                 (A) (A) (A) (A) (A) (A) (A) (A) (A) (A) (A) (A)
                 (A) (A) (A) (A) (A) (A) (A) (A) (A) (A) (A) (A)
                 (A) (A) (A) (A) (A) (A) (A) (A) (A) (A) (A) (A)
                 (A) (A) (A) (A) (A) (A) (A) (A) (A) (A) (A) (A)
                 (A) (A) (A) (A) (A) (A) (A) (A) (A) (A) (A) (A)
                 (A) (A) (A) (A) (A) (A) (A) (A) (A) (A) (A) (A)
                 (A) (A) (A) (A) (A) (A) (A) (A) (A) (A) (A) (A)
                 (A) (A) (A) (A) (A) (A) (A) (A) (A) (A) (A) (A)
                 (A) (A) (A) (A) (A) (A) (A) (A) (A) (A) (A) (A)
                 (A) (A) (A) (A) (A) (A) (A) (A) (A) (A) (A) (A)
                 (A) (A) (A) (A) (A) (A) (A) (A) (A) (A) (A) (A)
                 (A) (A) (A) (A) (A) (A) (A) (A) (A) (A) (A) (A)
                 (A) (A) (A) (A) (A) (A) (A) (A) (A) (A) (A) (A)
                 (A) (A) (A) (A) (A) (A) (A) (A) (A) (A) (A) (A)
                 (A) (A) (A) (A) (A) (A) (A) (A) (A) (A) (A) (A)
                 (A) (A) (A) (A) (A) (A) (A) (A) (A) (A) (A) (A)
                 (A) (A) (A) (A) (A) (A) (A) (A) (A) (A) (A) (A)
                 (A) (A) (A) (A) (A) (A) (A) (A) (A) (A) (A) (A)
                 (A) (A) (A) (A) (A) (A) (A) (A) (A) (A) (A) (A)
                 (A) (A) (A) (A) (A) (A) (A) (A) (A) (A) (A) (A)
                 (A) (A) (A) (A) (A) (A) (A) (A) (A) (A) (A) (A)
                 (A) (A) (A) (A) (A) (A) (A) (A) (A) (A) (A) (A)
                 (A) (A) (A) (A) (A) (A) (A) (A) (A) (A) (A) (A)
                 (A) (A) (A) (A) (A) (A)
 Beta  Orbitals:
       Occupied  (A) (A) (A) (A) (A) (A) (A) (A) (A) (A) (A) (A)
                 (A) (A) (A) (A) (A) (A) (A) (A) (A) (A) (A) (A)
                 (A) (A) (A) (A) (A) (A) (A) (A) (A) (A) (A) (A)
                 (A) (A) (A) (A) (A) (A) (A) (A)
       Virtual   (A) (A) (A) (A) (A) (A) (A) (A) (A) (A) (A) (A)
                 (A) (A) (A) (A) (A) (A) (A) (A) (A) (A) (A) (A)
                 (A) (A) (A) (A) (A) (A) (A) (A) (A) (A) (A) (A)
                 (A) (A) (A) (A) (A) (A) (A) (A) (A) (A) (A) (A)
                 (A) (A) (A) (A) (A) (A) (A) (A) (A) (A) (A) (A)
                 (A) (A) (A) (A) (A) (A) (A) (A) (A) (A) (A) (A)
                 (A) (A) (A) (A) (A) (A) (A) (A) (A) (A) (A) (A)
                 (A) (A) (A) (A) (A) (A) (A) (A) (A) (A) (A) (A)
                 (A) (A) (A) (A) (A) (A) (A) (A) (A) (A) (A) (A)
                 (A) (A) (A) (A) (A) (A) (A) (A) (A) (A) (A) (A)
                 (A) (A) (A) (A) (A) (A) (A) (A) (A) (A) (A) (A)
                 (A) (A) (A) (A) (A) (A) (A) (A) (A) (A) (A) (A)
                 (A) (A) (A) (A) (A) (A) (A) (A) (A) (A) (A) (A)
                 (A) (A) (A) (A) (A) (A) (A) (A) (A) (A) (A) (A)
                 (A) (A) (A) (A) (A) (A) (A) (A) (A) (A) (A) (A)
                 (A) (A) (A) (A) (A) (A) (A) (A) (A) (A) (A) (A)
                 (A) (A) (A) (A) (A) (A) (A) (A) (A) (A) (A) (A)
                 (A) (A) (A) (A) (A) (A) (A) (A) (A) (A) (A) (A)
                 (A) (A) (A) (A) (A) (A) (A) (A) (A) (A) (A) (A)
                 (A) (A) (A) (A) (A) (A) (A) (A) (A) (A) (A) (A)
                 (A) (A) (A) (A) (A) (A) (A) (A) (A) (A) (A) (A)
                 (A) (A) (A) (A) (A) (A) (A) (A) (A) (A) (A) (A)
                 (A) (A) (A) (A) (A) (A) (A) (A) (A) (A) (A) (A)
                 (A) (A) (A) (A) (A) (A) (A) (A) (A) (A) (A) (A)
                 (A) (A) (A) (A) (A) (A) (A) (A) (A) (A) (A) (A)
                 (A) (A) (A) (A) (A) (A) (A) (A) (A) (A) (A) (A)
                 (A) (A) (A) (A) (A) (A) (A) (A) (A) (A) (A) (A)
                 (A) (A) (A) (A) (A) (A) (A)
 The electronic state is 2-A.
 Alpha  occ. eigenvalues --  -19.18353 -19.18224 -10.22190 -10.17765 -10.17664
 Alpha  occ. eigenvalues --  -10.17309 -10.16169 -10.16066 -10.15872 -10.15847
 Alpha  occ. eigenvalues --  -10.15528  -1.12280  -0.92439  -0.82033  -0.79986
 Alpha  occ. eigenvalues --   -0.74591  -0.67917  -0.67764  -0.67017  -0.60244
 Alpha  occ. eigenvalues --   -0.56657  -0.55770  -0.53083  -0.49406  -0.47719
 Alpha  occ. eigenvalues --   -0.46753  -0.45059  -0.43911  -0.42872  -0.42257
 Alpha  occ. eigenvalues --   -0.40994  -0.39697  -0.38773  -0.37597  -0.36943
 Alpha  occ. eigenvalues --   -0.35795  -0.35432  -0.34746  -0.33504  -0.32610
 Alpha  occ. eigenvalues --   -0.32288  -0.31123  -0.30693  -0.26676  -0.20508
 Alpha virt. eigenvalues --   -0.01728  -0.00656  -0.00058   0.00725   0.00781
 Alpha virt. eigenvalues --    0.01686   0.02164   0.02397   0.03492   0.03765
 Alpha virt. eigenvalues --    0.04066   0.04312   0.05443   0.05840   0.06041
 Alpha virt. eigenvalues --    0.06703   0.07155   0.07490   0.08218   0.08859
 Alpha virt. eigenvalues --    0.09355   0.09899   0.10073   0.10828   0.10907
 Alpha virt. eigenvalues --    0.11550   0.11944   0.12132   0.12411   0.12950
 Alpha virt. eigenvalues --    0.13191   0.13688   0.13787   0.14278   0.14384
 Alpha virt. eigenvalues --    0.14564   0.14705   0.15024   0.15255   0.15629
 Alpha virt. eigenvalues --    0.16032   0.16093   0.16644   0.17344   0.17458
 Alpha virt. eigenvalues --    0.17869   0.18159   0.18349   0.18638   0.19045
 Alpha virt. eigenvalues --    0.19337   0.19703   0.20267   0.20661   0.21641
 Alpha virt. eigenvalues --    0.21751   0.21844   0.22043   0.22313   0.22928
 Alpha virt. eigenvalues --    0.23534   0.23923   0.24925   0.25544   0.26011
 Alpha virt. eigenvalues --    0.26163   0.27008   0.27163   0.27592   0.28115
 Alpha virt. eigenvalues --    0.29072   0.29200   0.30057   0.30975   0.32043
 Alpha virt. eigenvalues --    0.32139   0.32421   0.32947   0.33510   0.34102
 Alpha virt. eigenvalues --    0.34367   0.35176   0.35716   0.36158   0.37359
 Alpha virt. eigenvalues --    0.37645   0.38791   0.39420   0.40151   0.40775
 Alpha virt. eigenvalues --    0.42659   0.45101   0.45700   0.46924   0.47479
 Alpha virt. eigenvalues --    0.48383   0.49769   0.51699   0.52449   0.53290
 Alpha virt. eigenvalues --    0.53789   0.54100   0.56169   0.56548   0.57624
 Alpha virt. eigenvalues --    0.58941   0.59811   0.60305   0.61949   0.62951
 Alpha virt. eigenvalues --    0.64252   0.64656   0.65303   0.65728   0.66867
 Alpha virt. eigenvalues --    0.67061   0.67882   0.68830   0.69148   0.70515
 Alpha virt. eigenvalues --    0.70978   0.71580   0.72483   0.73380   0.73801
 Alpha virt. eigenvalues --    0.74581   0.74729   0.76003   0.76031   0.77474
 Alpha virt. eigenvalues --    0.78086   0.78458   0.79864   0.80289   0.82677
 Alpha virt. eigenvalues --    0.83580   0.85767   0.88092   0.88765   0.92801
 Alpha virt. eigenvalues --    0.94710   0.96865   0.99215   0.99535   1.02363
 Alpha virt. eigenvalues --    1.03783   1.04115   1.06701   1.07970   1.08881
 Alpha virt. eigenvalues --    1.10065   1.12070   1.12969   1.15408   1.15705
 Alpha virt. eigenvalues --    1.17624   1.20867   1.22036   1.25407   1.27058
 Alpha virt. eigenvalues --    1.27967   1.29979   1.32371   1.35229   1.38073
 Alpha virt. eigenvalues --    1.41121   1.42913   1.44167   1.46534   1.48614
 Alpha virt. eigenvalues --    1.48950   1.50768   1.51028   1.52105   1.52979
 Alpha virt. eigenvalues --    1.55139   1.56202   1.57295   1.58520   1.59372
 Alpha virt. eigenvalues --    1.59618   1.59965   1.61228   1.61879   1.62472
 Alpha virt. eigenvalues --    1.63287   1.63446   1.64141   1.65461   1.67088
 Alpha virt. eigenvalues --    1.67197   1.69040   1.69858   1.70845   1.72556
 Alpha virt. eigenvalues --    1.73428   1.74946   1.75109   1.76267   1.77793
 Alpha virt. eigenvalues --    1.77858   1.79465   1.79679   1.81651   1.83479
 Alpha virt. eigenvalues --    1.84903   1.85315   1.87184   1.89057   1.89137
 Alpha virt. eigenvalues --    1.92029   1.96408   1.99867   2.01066   2.01995
 Alpha virt. eigenvalues --    2.03510   2.04014   2.05201   2.09199   2.11520
 Alpha virt. eigenvalues --    2.12243   2.13813   2.15390   2.18254   2.20164
 Alpha virt. eigenvalues --    2.21427   2.22434   2.24340   2.28239   2.29317
 Alpha virt. eigenvalues --    2.31143   2.31602   2.34160   2.36061   2.40359
 Alpha virt. eigenvalues --    2.42004   2.42681   2.45022   2.48406   2.48904
 Alpha virt. eigenvalues --    2.49154   2.50132   2.50948   2.52573   2.54029
 Alpha virt. eigenvalues --    2.55498   2.55977   2.56650   2.57590   2.58311
 Alpha virt. eigenvalues --    2.59712   2.60370   2.61181   2.62550   2.63753
 Alpha virt. eigenvalues --    2.64874   2.66537   2.67060   2.68368   2.70009
 Alpha virt. eigenvalues --    2.71794   2.73110   2.73494   2.76431   2.76937
 Alpha virt. eigenvalues --    2.78070   2.80865   2.82700   2.84750   2.86328
 Alpha virt. eigenvalues --    2.87064   2.87580   2.91297   2.93135   2.94505
 Alpha virt. eigenvalues --    2.95573   2.97282   2.98954   3.00206   3.02201
 Alpha virt. eigenvalues --    3.03684   3.06476   3.09627   3.10699   3.13579
 Alpha virt. eigenvalues --    3.16773   3.17142   3.22344   3.26758   3.33279
 Alpha virt. eigenvalues --    3.41524   3.49379   3.52691   3.70765   3.75718
 Alpha virt. eigenvalues --    3.77802   3.79911   3.80877   3.81142   3.83024
 Alpha virt. eigenvalues --    3.83581   3.85560   3.89185   3.89829   3.98091
 Alpha virt. eigenvalues --    3.99844   4.03516   4.11809   4.21342   4.22792
 Alpha virt. eigenvalues --    4.29009   4.33581   4.41363   4.87787   5.00559
 Alpha virt. eigenvalues --    5.07865   5.38504   5.53407   5.65509  23.83228
 Alpha virt. eigenvalues --   23.84768  23.86963  23.87766  23.91682  23.93083
 Alpha virt. eigenvalues --   23.94044  23.97596  23.99023  49.85776  49.88585
  Beta  occ. eigenvalues --  -19.18353 -19.18224 -10.22190 -10.17842 -10.17664
  Beta  occ. eigenvalues --  -10.16153 -10.15925 -10.15918 -10.15865 -10.15843
  Beta  occ. eigenvalues --  -10.15528  -1.12280  -0.92439  -0.81737  -0.79669
  Beta  occ. eigenvalues --   -0.74314  -0.67791  -0.67335  -0.65253  -0.60001
  Beta  occ. eigenvalues --   -0.56623  -0.55067  -0.53078  -0.49394  -0.47456
  Beta  occ. eigenvalues --   -0.46702  -0.44920  -0.43641  -0.42544  -0.42112
  Beta  occ. eigenvalues --   -0.40844  -0.39400  -0.38376  -0.37374  -0.36892
  Beta  occ. eigenvalues --   -0.35695  -0.35320  -0.34336  -0.33287  -0.32439
  Beta  occ. eigenvalues --   -0.32203  -0.31119  -0.30589  -0.26672
  Beta virt. eigenvalues --   -0.06162  -0.01720  -0.00653   0.00068   0.00755
  Beta virt. eigenvalues --    0.00849   0.01734   0.02241   0.02418   0.03526
  Beta virt. eigenvalues --    0.03769   0.04102   0.04329   0.05454   0.05833
  Beta virt. eigenvalues --    0.06068   0.06724   0.07337   0.07491   0.08209
  Beta virt. eigenvalues --    0.08997   0.09363   0.10027   0.10186   0.10862
  Beta virt. eigenvalues --    0.11074   0.11595   0.11980   0.12155   0.12454
  Beta virt. eigenvalues --    0.12970   0.13202   0.13730   0.13932   0.14335
  Beta virt. eigenvalues --    0.14462   0.14718   0.14840   0.15053   0.15267
  Beta virt. eigenvalues --    0.15710   0.16141   0.16213   0.16663   0.17443
  Beta virt. eigenvalues --    0.17504   0.17934   0.18197   0.18382   0.18778
  Beta virt. eigenvalues --    0.19104   0.19365   0.19741   0.20304   0.20885
  Beta virt. eigenvalues --    0.21739   0.21788   0.21951   0.22137   0.22415
  Beta virt. eigenvalues --    0.22959   0.23690   0.24028   0.24971   0.25862
  Beta virt. eigenvalues --    0.26070   0.26269   0.27063   0.27520   0.27798
  Beta virt. eigenvalues --    0.28154   0.29167   0.29465   0.30237   0.31018
  Beta virt. eigenvalues --    0.32140   0.32252   0.32458   0.33128   0.33572
  Beta virt. eigenvalues --    0.34201   0.34425   0.35314   0.35761   0.36204
  Beta virt. eigenvalues --    0.37481   0.37784   0.38875   0.39473   0.40352
  Beta virt. eigenvalues --    0.40865   0.42709   0.45159   0.45797   0.47125
  Beta virt. eigenvalues --    0.47555   0.48579   0.49833   0.51754   0.52536
  Beta virt. eigenvalues --    0.53459   0.53894   0.54225   0.56280   0.56669
  Beta virt. eigenvalues --    0.58029   0.59318   0.59908   0.60743   0.62347
  Beta virt. eigenvalues --    0.64027   0.64397   0.65097   0.65410   0.66975
  Beta virt. eigenvalues --    0.66997   0.67173   0.67957   0.69127   0.69410
  Beta virt. eigenvalues --    0.70594   0.71312   0.71895   0.72597   0.73690
  Beta virt. eigenvalues --    0.74058   0.74703   0.74898   0.76096   0.76464
  Beta virt. eigenvalues --    0.77550   0.78346   0.78650   0.79957   0.80337
  Beta virt. eigenvalues --    0.82809   0.83787   0.86014   0.88678   0.89310
  Beta virt. eigenvalues --    0.93339   0.95075   0.97190   0.99267   0.99799
  Beta virt. eigenvalues --    1.02441   1.03912   1.04610   1.06810   1.08191
  Beta virt. eigenvalues --    1.09703   1.10203   1.12526   1.13403   1.15431
  Beta virt. eigenvalues --    1.16150   1.17634   1.20935   1.22137   1.25570
  Beta virt. eigenvalues --    1.27895   1.28447   1.30041   1.32415   1.35282
  Beta virt. eigenvalues --    1.38379   1.41203   1.42998   1.44193   1.46543
  Beta virt. eigenvalues --    1.48876   1.49101   1.51023   1.51429   1.52184
  Beta virt. eigenvalues --    1.53037   1.55864   1.56483   1.57385   1.58538
  Beta virt. eigenvalues --    1.59456   1.59840   1.60402   1.61373   1.62157
  Beta virt. eigenvalues --    1.62813   1.63440   1.63694   1.64344   1.65610
  Beta virt. eigenvalues --    1.67182   1.67578   1.69315   1.69926   1.70942
  Beta virt. eigenvalues --    1.72577   1.73630   1.75119   1.75307   1.77457
  Beta virt. eigenvalues --    1.78067   1.78323   1.79646   1.79734   1.81832
  Beta virt. eigenvalues --    1.83585   1.85355   1.85792   1.87449   1.89182
  Beta virt. eigenvalues --    1.89922   1.92228   1.96495   2.00269   2.01443
  Beta virt. eigenvalues --    2.03109   2.03886   2.04740   2.05358   2.09320
  Beta virt. eigenvalues --    2.11596   2.12568   2.13887   2.15681   2.18440
  Beta virt. eigenvalues --    2.20463   2.21732   2.22808   2.24454   2.28399
  Beta virt. eigenvalues --    2.29447   2.31219   2.31649   2.34281   2.36209
  Beta virt. eigenvalues --    2.40456   2.42036   2.42710   2.45210   2.48506
  Beta virt. eigenvalues --    2.49010   2.49171   2.50191   2.50983   2.52659
  Beta virt. eigenvalues --    2.54145   2.55553   2.56034   2.56873   2.57648
  Beta virt. eigenvalues --    2.58723   2.59968   2.60590   2.61253   2.62584
  Beta virt. eigenvalues --    2.63790   2.64937   2.66750   2.67293   2.68449
  Beta virt. eigenvalues --    2.70294   2.71902   2.73336   2.73932   2.76568
  Beta virt. eigenvalues --    2.77043   2.78209   2.81044   2.83107   2.84901
  Beta virt. eigenvalues --    2.86646   2.87152   2.87740   2.91968   2.94026
  Beta virt. eigenvalues --    2.94542   2.96215   2.98474   2.99721   3.00474
  Beta virt. eigenvalues --    3.02214   3.03758   3.06651   3.09713   3.10751
  Beta virt. eigenvalues --    3.13808   3.16797   3.17840   3.22384   3.26787
  Beta virt. eigenvalues --    3.33281   3.41636   3.49516   3.52804   3.70765
  Beta virt. eigenvalues --    3.76942   3.78466   3.80099   3.80904   3.81260
  Beta virt. eigenvalues --    3.83044   3.83611   3.85618   3.89201   3.89832
  Beta virt. eigenvalues --    3.98100   4.00138   4.03522   4.11921   4.21734
  Beta virt. eigenvalues --    4.23428   4.29011   4.33719   4.41457   4.87787
  Beta virt. eigenvalues --    5.00559   5.07865   5.38504   5.53407   5.65509
  Beta virt. eigenvalues --   23.83228  23.84760  23.87068  23.88652  23.92023
  Beta virt. eigenvalues --   23.93260  23.94058  23.97779  23.99024  49.85776
  Beta virt. eigenvalues --   49.88585
          Condensed to atoms (all electrons):
              1          2          3          4          5          6
     1  C    6.045371   0.402758   0.400039   0.385935  -0.594961  -0.096609
     2  H    0.402758   0.603076  -0.043452  -0.030440  -0.143976  -0.021006
     3  H    0.400039  -0.043452   0.514580  -0.031089   0.141079   0.017936
     4  H    0.385935  -0.030440  -0.031089   0.580443  -0.001739  -0.009148
     5  C   -0.594961  -0.143976   0.141079  -0.001739   9.783249   0.666563
     6  H   -0.096609  -0.021006   0.017936  -0.009148   0.666563   0.643497
     7  C    0.534018   0.020207  -0.132657   0.030185  -3.111930  -0.214983
     8  H   -0.010725  -0.018488   0.005920   0.005195   0.088767  -0.002787
     9  H    0.053649   0.013694   0.002956  -0.005273  -0.203421   0.004542
    10  C   -0.187144   0.016205   0.011627  -0.008462   0.541874  -0.009526
    11  H   -0.000706  -0.000967   0.000749   0.000269  -0.143859  -0.001776
    12  H    0.018211   0.005745   0.000370  -0.002323   0.155705   0.017332
    13  C   -0.018483   0.019539  -0.010535  -0.007333  -0.626730  -0.025464
    14  H   -0.001354  -0.002794   0.001335   0.000539   0.007633   0.001388
    15  H   -0.002556   0.005194  -0.001492  -0.000838  -0.028070  -0.003101
    16  C   -0.006444   0.004378  -0.000811  -0.001389  -0.201815  -0.007402
    17  H    0.001471  -0.000041  -0.000013   0.000012  -0.003790  -0.001157
    18  C   -0.003100   0.000848  -0.000204  -0.000184  -0.013377  -0.000786
    19  H    0.000114   0.000075  -0.000030  -0.000010  -0.001464  -0.000074
    20  H   -0.000074   0.000055  -0.000014  -0.000011  -0.001187  -0.000087
    21  H    0.000024  -0.000208   0.000054   0.000032   0.002609   0.000207
    22  C   -0.289951   0.034475  -0.048332  -0.040369  -0.839670  -0.109637
    23  H   -0.039351   0.012018  -0.004982  -0.004527  -0.172038  -0.006375
    24  H    0.005290  -0.007413   0.000832   0.004219   0.110610   0.003650
    25  C   -0.003527  -0.000493   0.000236   0.000085   0.009458   0.002958
    26  H    0.000011  -0.000042   0.000028   0.000006   0.001117   0.000205
    27  H   -0.000444   0.000108  -0.000130  -0.000021  -0.010049  -0.000748
    28  O    0.001019   0.003342  -0.002333  -0.005527  -0.031427   0.010316
    29  O   -0.009522   0.001031   0.001511  -0.001008  -0.100258  -0.004499
    30  H   -0.000216   0.000106  -0.000037  -0.000108  -0.000452   0.000658
              7          8          9         10         11         12
     1  C    0.534018  -0.010725   0.053649  -0.187144  -0.000706   0.018211
     2  H    0.020207  -0.018488   0.013694   0.016205  -0.000967   0.005745
     3  H   -0.132657   0.005920   0.002956   0.011627   0.000749   0.000370
     4  H    0.030185   0.005195  -0.005273  -0.008462   0.000269  -0.002323
     5  C   -3.111930   0.088767  -0.203421   0.541874  -0.143859   0.155705
     6  H   -0.214983  -0.002787   0.004542  -0.009526  -0.001776   0.017332
     7  C   11.359445   0.440283   0.460341  -1.823157   0.068818  -0.566718
     8  H    0.440283   0.697858  -0.104040  -0.023112  -0.014025  -0.013128
     9  H    0.460341  -0.104040   0.573268  -0.112878   0.010128   0.023710
    10  C   -1.823157  -0.023112  -0.112878   7.701315   0.444367   0.567196
    11  H    0.068818  -0.014025   0.010128   0.444367   0.682379  -0.133642
    12  H   -0.566718  -0.013128   0.023710   0.567196  -0.133642   0.808353
    13  C    0.215749  -0.148865   0.123048  -1.324724  -0.106629   0.001669
    14  H    0.037205   0.016901  -0.009175  -0.103641   0.021199  -0.030888
    15  H   -0.116656  -0.025018   0.015165  -0.044779  -0.030850   0.040494
    16  C   -0.686394  -0.026475   0.010352   0.184063   0.066687   0.046722
    17  H   -0.007412   0.000441   0.000161  -0.051090   0.012485   0.004445
    18  C   -0.177874  -0.016442   0.008035  -0.213800  -0.002074   0.027152
    19  H   -0.006196  -0.001927   0.001593  -0.015874   0.000775   0.001563
    20  H   -0.008990  -0.000912   0.000656   0.000462  -0.000143   0.003194
    21  H    0.015915   0.004248  -0.002339   0.013221  -0.000604  -0.003470
    22  C    0.327986   0.004820  -0.046179   0.204105   0.025361  -0.082370
    23  H    0.068760  -0.010900   0.005777  -0.007268  -0.000911   0.008076
    24  H   -0.086215   0.011309  -0.008411   0.049553  -0.000435  -0.010955
    25  C    0.154275   0.007863  -0.009002   0.131020  -0.016761  -0.015157
    26  H    0.010663   0.000572  -0.000600   0.014703  -0.000677  -0.000946
    27  H   -0.019566  -0.000891   0.000087  -0.013052   0.004376  -0.005912
    28  O   -0.108466  -0.012469   0.031800   0.022757   0.001032   0.005438
    29  O   -0.001274   0.003495  -0.016733  -0.035903  -0.005114   0.045060
    30  H   -0.046876  -0.002902   0.003391   0.017680  -0.000141   0.005354
             13         14         15         16         17         18
     1  C   -0.018483  -0.001354  -0.002556  -0.006444   0.001471  -0.003100
     2  H    0.019539  -0.002794   0.005194   0.004378  -0.000041   0.000848
     3  H   -0.010535   0.001335  -0.001492  -0.000811  -0.000013  -0.000204
     4  H   -0.007333   0.000539  -0.000838  -0.001389   0.000012  -0.000184
     5  C   -0.626730   0.007633  -0.028070  -0.201815  -0.003790  -0.013377
     6  H   -0.025464   0.001388  -0.003101  -0.007402  -0.001157  -0.000786
     7  C    0.215749   0.037205  -0.116656  -0.686394  -0.007412  -0.177874
     8  H   -0.148865   0.016901  -0.025018  -0.026475   0.000441  -0.016442
     9  H    0.123048  -0.009175   0.015165   0.010352   0.000161   0.008035
    10  C   -1.324724  -0.103641  -0.044779   0.184063  -0.051090  -0.213800
    11  H   -0.106629   0.021199  -0.030850   0.066687   0.012485  -0.002074
    12  H    0.001669  -0.030888   0.040494   0.046722   0.004445   0.027152
    13  C    8.701527   0.391511   0.483838  -1.232147  -0.079261   0.170550
    14  H    0.391511   0.603965  -0.083569   0.057901   0.023391  -0.010962
    15  H    0.483838  -0.083569   0.670760  -0.059740  -0.015555   0.052263
    16  C   -1.232147   0.057901  -0.059740   6.999623   0.564977   0.122414
    17  H   -0.079261   0.023391  -0.015555   0.564977   0.617654  -0.072296
    18  C    0.170550  -0.010962   0.052263   0.122414  -0.072296   5.782038
    19  H   -0.065477   0.003594   0.004684   0.056191   0.015375   0.397509
    20  H    0.023805  -0.004767   0.003124  -0.045571  -0.007321   0.393757
    21  H   -0.000949   0.006507  -0.005015  -0.059062  -0.011165   0.359766
    22  C    0.118589  -0.007948   0.009450   0.038640  -0.001672   0.006066
    23  H    0.024677  -0.002547   0.002233   0.001962  -0.000402   0.000640
    24  H   -0.045534   0.004472  -0.004041  -0.012746   0.000694  -0.002515
    25  C    0.361417  -0.076211   0.013153  -0.523725  -0.150046  -0.171982
    26  H    0.008260  -0.002690  -0.001756  -0.035150  -0.005583  -0.018861
    27  H   -0.029251   0.007800   0.000256   0.041974   0.010413   0.005451
    28  O    0.020652  -0.001197   0.001350   0.003969   0.000177   0.000215
    29  O    0.085768  -0.005247   0.002862   0.013993   0.000531   0.002052
    30  H   -0.005500  -0.000368   0.000358  -0.001278  -0.000125  -0.000105
             19         20         21         22         23         24
     1  C    0.000114  -0.000074   0.000024  -0.289951  -0.039351   0.005290
     2  H    0.000075   0.000055  -0.000208   0.034475   0.012018  -0.007413
     3  H   -0.000030  -0.000014   0.000054  -0.048332  -0.004982   0.000832
     4  H   -0.000010  -0.000011   0.000032  -0.040369  -0.004527   0.004219
     5  C   -0.001464  -0.001187   0.002609  -0.839670  -0.172038   0.110610
     6  H   -0.000074  -0.000087   0.000207  -0.109637  -0.006375   0.003650
     7  C   -0.006196  -0.008990   0.015915   0.327986   0.068760  -0.086215
     8  H   -0.001927  -0.000912   0.004248   0.004820  -0.010900   0.011309
     9  H    0.001593   0.000656  -0.002339  -0.046179   0.005777  -0.008411
    10  C   -0.015874   0.000462   0.013221   0.204105  -0.007268   0.049553
    11  H    0.000775  -0.000143  -0.000604   0.025361  -0.000911  -0.000435
    12  H    0.001563   0.003194  -0.003470  -0.082370   0.008076  -0.010955
    13  C   -0.065477   0.023805  -0.000949   0.118589   0.024677  -0.045534
    14  H    0.003594  -0.004767   0.006507  -0.007948  -0.002547   0.004472
    15  H    0.004684   0.003124  -0.005015   0.009450   0.002233  -0.004041
    16  C    0.056191  -0.045571  -0.059062   0.038640   0.001962  -0.012746
    17  H    0.015375  -0.007321  -0.011165  -0.001672  -0.000402   0.000694
    18  C    0.397509   0.393757   0.359766   0.006066   0.000640  -0.002515
    19  H    0.563184  -0.025322  -0.051099   0.000121   0.000041  -0.000211
    20  H   -0.025322   0.554973  -0.025877   0.000302   0.000037  -0.000217
    21  H   -0.051099  -0.025877   0.602218  -0.000348  -0.000060   0.000310
    22  C    0.000121   0.000302  -0.000348   6.340521   0.425255   0.320329
    23  H    0.000041   0.000037  -0.000060   0.425255   0.601862  -0.056314
    24  H   -0.000211  -0.000217   0.000310   0.320329  -0.056314   0.591938
    25  C   -0.021454  -0.022908   0.034271   0.014524   0.000812  -0.003170
    26  H    0.000177  -0.001078   0.000864  -0.000626  -0.000095   0.000319
    27  H    0.006370   0.001845  -0.002842   0.006678   0.000372  -0.001054
    28  O    0.000038   0.000010  -0.000046   0.220173  -0.074579  -0.040320
    29  O    0.000167   0.000131  -0.000192   0.018116   0.035396  -0.015792
    30  H   -0.000003  -0.000014   0.000006   0.028242  -0.001030  -0.001840
             25         26         27         28         29         30
     1  C   -0.003527   0.000011  -0.000444   0.001019  -0.009522  -0.000216
     2  H   -0.000493  -0.000042   0.000108   0.003342   0.001031   0.000106
     3  H    0.000236   0.000028  -0.000130  -0.002333   0.001511  -0.000037
     4  H    0.000085   0.000006  -0.000021  -0.005527  -0.001008  -0.000108
     5  C    0.009458   0.001117  -0.010049  -0.031427  -0.100258  -0.000452
     6  H    0.002958   0.000205  -0.000748   0.010316  -0.004499   0.000658
     7  C    0.154275   0.010663  -0.019566  -0.108466  -0.001274  -0.046876
     8  H    0.007863   0.000572  -0.000891  -0.012469   0.003495  -0.002902
     9  H   -0.009002  -0.000600   0.000087   0.031800  -0.016733   0.003391
    10  C    0.131020   0.014703  -0.013052   0.022757  -0.035903   0.017680
    11  H   -0.016761  -0.000677   0.004376   0.001032  -0.005114  -0.000141
    12  H   -0.015157  -0.000946  -0.005912   0.005438   0.045060   0.005354
    13  C    0.361417   0.008260  -0.029251   0.020652   0.085768  -0.005500
    14  H   -0.076211  -0.002690   0.007800  -0.001197  -0.005247  -0.000368
    15  H    0.013153  -0.001756   0.000256   0.001350   0.002862   0.000358
    16  C   -0.523725  -0.035150   0.041974   0.003969   0.013993  -0.001278
    17  H   -0.150046  -0.005583   0.010413   0.000177   0.000531  -0.000125
    18  C   -0.171982  -0.018861   0.005451   0.000215   0.002052  -0.000105
    19  H   -0.021454   0.000177   0.006370   0.000038   0.000167  -0.000003
    20  H   -0.022908  -0.001078   0.001845   0.000010   0.000131  -0.000014
    21  H    0.034271   0.000864  -0.002842  -0.000046  -0.000192   0.000006
    22  C    0.014524  -0.000626   0.006678   0.220173   0.018116   0.028242
    23  H    0.000812  -0.000095   0.000372  -0.074579   0.035396  -0.001030
    24  H   -0.003170   0.000319  -0.001054  -0.040320  -0.015792  -0.001840
    25  C    6.097892   0.402166   0.341266  -0.001614  -0.009804   0.001088
    26  H    0.402166   0.530729  -0.031167  -0.000049  -0.000718   0.000046
    27  H    0.341266  -0.031167   0.543832   0.000107   0.001874  -0.000701
    28  O   -0.001614  -0.000049   0.000107   8.015202   0.015885  -0.003299
    29  O   -0.009804  -0.000718   0.001874   0.015885   7.988625   0.191830
    30  H    0.001088   0.000046  -0.000701  -0.003299   0.191830   0.548777
 Mulliken atomic charges:
              1
     1  C   -0.582742
     2  H    0.126469
     3  H    0.176860
     4  H    0.142880
     5  C    0.721551
     6  H    0.145914
     7  C   -0.628486
     8  H    0.145433
     9  H    0.175698
    10  C    0.054261
    11  H    0.120688
    12  H    0.079720
    13  C   -1.023718
    14  H    0.158017
    15  H    0.117852
    16  C    0.686303
    17  H    0.154700
    18  C   -0.624196
    19  H    0.137571
    20  H    0.162142
    21  H    0.123025
    22  C   -0.676652
    23  H    0.193459
    24  H    0.193656
    25  C   -0.546631
    26  H    0.130171
    27  H    0.143019
    28  O   -0.072158
    29  O   -0.202264
    30  H    0.267457
 Sum of Mulliken atomic charges =   0.00000
 Mulliken charges with hydrogens summed into heavy atoms:
              1
     1  C   -0.136533
     5  C    0.867466
     7  C   -0.307354
    10  C    0.254669
    13  C   -0.747849
    16  C    0.841003
    18  C   -0.201458
    22  C   -0.289537
    25  C   -0.273441
    28  O   -0.072158
    29  O    0.065193
 Sum of Mulliken charges with hydrogens summed into heavy atoms =   0.00000
          Atomic-Atomic Spin Densities.
              1          2          3          4          5          6
     1  C    0.011115  -0.000108   0.000226   0.001314   0.003696  -0.000814
     2  H   -0.000108  -0.000020   0.000014   0.000000   0.000410   0.000014
     3  H    0.000226   0.000014   0.000007   0.000007  -0.000394  -0.000024
     4  H    0.001314   0.000000   0.000007   0.000154  -0.000587  -0.000099
     5  C    0.003696   0.000410  -0.000394  -0.000587   0.005065  -0.000751
     6  H   -0.000814   0.000014  -0.000024  -0.000099  -0.000751   0.000061
     7  C    0.030129  -0.000179   0.000178   0.001586   0.008512  -0.003063
     8  H    0.004222  -0.000006   0.000054   0.000135  -0.003237  -0.000306
     9  H   -0.001289  -0.000017  -0.000068  -0.000020   0.002889   0.000094
    10  C   -0.032100  -0.000014   0.000034  -0.001610  -0.000480   0.003308
    11  H   -0.002718   0.000009  -0.000003  -0.000101  -0.001801   0.000356
    12  H    0.000845   0.000011   0.000028  -0.000023   0.000176  -0.000220
    13  C    0.000040  -0.000066  -0.000079  -0.000037   0.001319  -0.000228
    14  H   -0.000249  -0.000026   0.000019  -0.000002  -0.000688   0.000021
    15  H   -0.000152   0.000006  -0.000009  -0.000013   0.000158   0.000052
    16  C   -0.004570   0.000001   0.000041  -0.000147  -0.007293   0.000328
    17  H    0.000563  -0.000005   0.000001   0.000016   0.001532  -0.000087
    18  C   -0.001124   0.000005   0.000000  -0.000026  -0.002012   0.000104
    19  H    0.000092  -0.000001   0.000000   0.000002   0.000127  -0.000008
    20  H   -0.000021   0.000000   0.000000   0.000000  -0.000049   0.000004
    21  H    0.000157   0.000001   0.000000   0.000003   0.000079  -0.000015
    22  C   -0.009203  -0.000015  -0.000015  -0.000709  -0.007683   0.000990
    23  H    0.000047   0.000000   0.000006  -0.000010   0.000270   0.000016
    24  H    0.002300  -0.000019   0.000003   0.000197   0.003295  -0.000250
    25  C   -0.001391  -0.000012   0.000000  -0.000029  -0.003642   0.000422
    26  H    0.000018   0.000000   0.000000   0.000001   0.000281  -0.000007
    27  H    0.000086   0.000005   0.000001  -0.000002  -0.000074  -0.000048
    28  O   -0.000224  -0.000013  -0.000005   0.000007   0.000342   0.000021
    29  O    0.000634   0.000006  -0.000001   0.000021   0.000468  -0.000025
    30  H   -0.000032   0.000000  -0.000001  -0.000002   0.000018   0.000003
              7          8          9         10         11         12
     1  C    0.030129   0.004222  -0.001289  -0.032100  -0.002718   0.000845
     2  H   -0.000179  -0.000006  -0.000017  -0.000014   0.000009   0.000011
     3  H    0.000178   0.000054  -0.000068   0.000034  -0.000003   0.000028
     4  H    0.001586   0.000135  -0.000020  -0.001610  -0.000101  -0.000023
     5  C    0.008512  -0.003237   0.002889  -0.000480  -0.001801   0.000176
     6  H   -0.003063  -0.000306   0.000094   0.003308   0.000356  -0.000220
     7  C    0.269764   0.021452  -0.009126  -0.215003  -0.027691   0.013379
     8  H    0.021452   0.002492  -0.001244  -0.014614  -0.000900   0.000134
     9  H   -0.009126  -0.001244   0.001718   0.004160   0.000334  -0.000798
    10  C   -0.215003  -0.014614   0.004160   0.195123   0.016239   0.004954
    11  H   -0.027691  -0.000900   0.000334   0.016239   0.003189   0.001361
    12  H    0.013379   0.000134  -0.000798   0.004954   0.001361  -0.006432
    13  C    0.069904  -0.002554   0.003918  -0.038498  -0.005242  -0.019511
    14  H    0.004692   0.000824  -0.000986  -0.002876  -0.000319   0.001164
    15  H   -0.006779  -0.001058   0.000368   0.009825   0.000908  -0.001019
    16  C   -0.089387  -0.001102  -0.001702   0.048584   0.008547   0.009537
    17  H    0.023493   0.000884  -0.000270   0.001766  -0.004177   0.001003
    18  C   -0.049896  -0.001829   0.000568   0.002185   0.006541  -0.001933
    19  H    0.004000   0.000153  -0.000043   0.000645  -0.000323  -0.000169
    20  H   -0.000912  -0.000016  -0.000008   0.000060   0.000169   0.000144
    21  H    0.007174   0.000195  -0.000015  -0.001061  -0.001022  -0.000157
    22  C   -0.028958  -0.001999   0.000338   0.027222   0.003528  -0.001776
    23  H   -0.000091  -0.000060   0.000032   0.000074   0.000068  -0.000161
    24  H    0.010569   0.000424  -0.000125  -0.009759  -0.001114   0.000075
    25  C   -0.035619  -0.000932   0.000635   0.025243   0.005863  -0.003067
    26  H    0.001122  -0.000010   0.000063   0.004270  -0.000192  -0.000456
    27  H    0.000228   0.000064  -0.000323   0.010583   0.000380   0.000482
    28  O   -0.001047  -0.000010   0.000084   0.000481   0.000032  -0.000066
    29  O    0.002649   0.000031  -0.000029  -0.002194  -0.000114  -0.000153
    30  H   -0.000242  -0.000007   0.000028   0.000144   0.000010  -0.000022
             13         14         15         16         17         18
     1  C    0.000040  -0.000249  -0.000152  -0.004570   0.000563  -0.001124
     2  H   -0.000066  -0.000026   0.000006   0.000001  -0.000005   0.000005
     3  H   -0.000079   0.000019  -0.000009   0.000041   0.000001   0.000000
     4  H   -0.000037  -0.000002  -0.000013  -0.000147   0.000016  -0.000026
     5  C    0.001319  -0.000688   0.000158  -0.007293   0.001532  -0.002012
     6  H   -0.000228   0.000021   0.000052   0.000328  -0.000087   0.000104
     7  C    0.069904   0.004692  -0.006779  -0.089387   0.023493  -0.049896
     8  H   -0.002554   0.000824  -0.001058  -0.001102   0.000884  -0.001829
     9  H    0.003918  -0.000986   0.000368  -0.001702  -0.000270   0.000568
    10  C   -0.038498  -0.002876   0.009825   0.048584   0.001766   0.002185
    11  H   -0.005242  -0.000319   0.000908   0.008547  -0.004177   0.006541
[...]
 004625,-0.00020909,-0.00035734,-0.00015699,0.00018651,-0.00022120,0.00
 008335,0.00056773,0.00089383,-0.00007575,0.00028899,0.00038967,0.00015
 230,-0.00007121,-0.00002953,0.00007585,-0.00020053,0.00005772,0.000096
 51,0.00008277,0.00000786,0.00000104,0.00001553,-0.00001047,0.00000098,
 0.00000434,-0.00000892,-0.00001455,0.00000025,-0.00000179,0.00000827,-
 0.00001666,-0.00000516,-0.00000309,-0.00000058,0.00000885,0.00000300,-
 0.09123123,-0.11409994,-0.06807952,-0.00097500,-0.00054479,-0.00114740
 ,0.09088844,0.12225029,0.00121779,-0.00146452,0.00076669,-0.00055790,-
 0.00014311,-0.00013188,0.00009374,0.00035111,0.00017394,-0.00033416,-0
 .00008530,0.00005913,-0.00680016,-0.00572962,-0.00347651,0.00022928,-0
 .00037651,0.00049478,-0.00100713,0.00029722,0.00000705,0.00005484,0.00
 009783,0.00006580,0.00006623,0.00001703,-0.00007875,-0.00015282,-0.000
 83838,0.00020940,0.00001815,0.00003056,-0.00004790,0.00074751,0.000469
 89,0.00009003,0.00016691,0.00043966,-0.00000962,-0.00002595,-0.0000267
 1,0.00003339,-0.00017158,0.00005621,0.00009910,0.00005781,-0.00000485,
 0.00003577,0.00000436,0.00000589,-0.00000703,-0.00000182,-0.00000183,-
 0.00002531,0.00000174,-0.00000196,0.00000627,-0.00001961,-0.00000648,-
 0.00000084,-0.00000056,0.00000782,0.00000560,-0.08454608,-0.06729002,-
 0.11392899,0.01155969,0.00759203,0.01155882,0.10611490,0.06672037,0.12
 967765,-0.00001180,0.00000226,0.00003887,0.00001089,-0.00000015,-0.000
 00594,-0.00000210,0.00000531,-0.00001384,-0.00004035,-0.00000380,0.000
 00678,0.00004134,0.00010950,-0.00007762,0.00000680,0.00001280,0.000000
 08,0.00017024,-0.00043186,0.00001957,-0.00010173,0.00002971,-0.0000431
 7,-0.00003464,0.00000981,-0.00006696,-0.00089710,-0.00135860,-0.000770
 10,0.00006097,0.00013854,0.00014372,-0.00027597,-0.00060819,0.00019912
 ,0.00085889,-0.02664574,-0.00362111,0.00066582,-0.00018345,0.00031032,
 -0.00398026,-0.00240840,-0.00238230,-0.05776056,0.00790583,-0.02053387
 ,-0.00021022,0.00687006,0.00014320,-0.00350181,0.02512269,0.00315420,0
 .00096229,-0.00079736,-0.00089447,0.00117605,0.00078420,0.00017923,-0.
 00328265,0.00265821,0.00271263,0.00012122,-0.00007673,0.00015541,-0.00
 004511,0.00003221,-0.00000937,0.00000271,-0.00003980,-0.00002559,0.263
 25756,0.00007741,-0.00002636,-0.00007546,-0.00000865,-0.00000816,-0.00
 000241,-0.00000021,0.00000550,0.00001138,0.00004446,0.00001989,0.00000
 977,0.00007359,0.00009661,0.00021331,-0.00001011,-0.00001258,-0.000001
 66,0.00054947,-0.00027752,-0.00048215,-0.00011047,-0.00000944,-0.00002
 454,0.00004088,0.00004702,0.00003896,0.00038162,0.00070322,0.00075763,
 -0.00004940,-0.00022961,0.00013061,-0.00006832,-0.00018391,-0.00022334
 ,-0.00648672,-0.01904383,-0.00767800,0.00135809,0.00138934,0.00138888,
 -0.00116421,0.00027412,-0.00009540,0.00463257,-0.21349984,-0.01334109,
 0.00350322,-0.01968071,-0.00036919,0.01503532,-0.01977600,-0.00921832,
 -0.00177955,0.00116563,0.00101923,-0.00155286,0.00061821,0.00079666,0.
 00071017,-0.00036437,-0.00049535,-0.00004601,0.00016420,-0.00006022,0.
 00002135,-0.00003280,0.00001173,0.00000858,-0.00000340,-0.00000161,-0.
 01813855,0.52560615,-0.00000159,0.00000245,-0.00000259,0.00000201,0.00
 002361,0.00000676,-0.00000097,-0.00001260,-0.00000351,0.00001127,-0.00
 000158,-0.00000325,-0.00003016,0.00007474,0.00001779,-0.00000358,0.000
 00149,-0.00000242,-0.00016756,0.00008539,0.00009843,0.00014404,0.00024
 432,0.00007980,0.00002737,-0.00002272,-0.00001991,0.00110100,-0.000242
 60,0.00020446,-0.00020673,-0.00002982,0.00007007,-0.00055211,0.0005257
 1,0.00022454,-0.00016210,-0.02046673,-0.00427783,0.00066850,-0.0011758
 7,0.00071069,-0.00337815,-0.00220215,-0.00112117,-0.02031425,-0.012370
 95,-0.07417118,-0.00198288,0.02802937,0.00401929,0.00306977,-0.0152815
 1,-0.00199579,-0.00056145,-0.00091795,0.00110274,-0.00079019,0.0009205
 9,0.00046054,0.00210865,-0.00215237,-0.00017189,-0.00008529,-0.0001588
 7,0.00000098,0.00001184,0.00003549,-0.00000719,-0.00001821,0.00003571,
 0.00003538,0.26414568,0.00950832,0.42907813,-0.00001425,0.00001011,0.0
 0001126,0.00000491,0.00000671,0.00000210,0.00000420,-0.00000183,0.0000
 0087,-0.00001150,-0.00000322,0.00000087,0.00001858,-0.00001079,-0.0000
 1304,-0.00000363,-0.00000791,0.00000962,0.00001790,-0.00000676,0.00003
 392,-0.00002516,0.00000854,-0.00000100,0.00002389,0.00000740,0.0000188
 7,0.00010138,-0.00013798,-0.00007094,-0.00003037,-0.00012703,0.0000600
 9,0.00008970,0.00009029,-0.00015589,-0.00019890,-0.00006917,-0.0005388
 1,0.00007786,0.00012574,0.00022489,0.00009542,-0.00009432,0.00009926,0
 .00396318,0.00286428,0.00362432,0.00000724,-0.00013274,-0.00028258,0.0
 0008391,-0.00068230,-0.00033678,-0.00003180,0.00012203,0.00004647,-0.0
 0013793,-0.00001042,-0.00009043,0.00007069,-0.00015858,-0.00017962,-0.
 00004431,-0.00002510,-0.00005229,-0.00000814,-0.00000136,0.00000528,0.
 00001682,0.00000357,-0.00000057,-0.11295031,-0.07028716,-0.13505867,0.
 11178391,-0.00003157,0.00001311,0.00003878,0.00000954,0.00000943,0.000
 00057,0.00000198,-0.00000291,-0.00000659,-0.00002967,-0.00000884,-0.00
 000068,-0.00001533,0.00001365,-0.00008487,0.00000168,0.00000050,0.0000
 0839,-0.00012580,0.00004668,0.00019992,0.00005558,0.00007988,0.0000244
 7,0.00000386,-0.00001597,-0.00001760,0.00030830,-0.00011062,-0.0003465
 7,-0.00003369,-0.00000081,0.00005770,-0.00018082,0.00011092,0.00015352
 ,0.00250940,-0.00526977,0.00013019,0.00005506,0.00014375,-0.00026736,-
 0.00151181,-0.00070999,-0.00089181,-0.01756757,-0.00582477,-0.01908909
 ,-0.00010381,0.00124589,0.00061800,-0.00089847,0.00000033,0.00021749,0
 .00009149,-0.00001887,-0.00002158,0.00067859,0.00008575,-0.00005244,0.
 00032652,-0.00005001,0.00010233,0.00000079,-0.00010723,0.00003039,-0.0
 0002315,0.00002460,-0.00000321,0.00000342,-0.00000017,-0.00000486,-0.0
 6829130,-0.11263391,-0.09186176,0.07546006,0.11355928,-0.00001119,0.00
 000828,0.00001583,0.00000505,-0.00000268,-0.00000177,0.00000268,0.0000
 0247,-0.00000208,-0.00001839,-0.00000362,0.00000274,0.00002030,0.00000
 252,-0.00003555,-0.00000135,-0.00000205,0.00000669,-0.00003392,0.00001
 059,0.00002993,-0.00000449,-0.00000893,0.00000247,0.00000798,0.0000097
 2,0.00000866,0.00016556,0.00004724,-0.00007702,-0.00002320,-0.00004566
 ,0.00002973,0.00011686,0.00002884,-0.00006953,0.00094121,-0.00029565,0
 .00103827,0.00021773,0.00014481,0.00036509,-0.00024922,-0.00007177,0.0
 0020564,-0.00288074,0.00267521,0.00032130,0.00065289,-0.00076741,0.001
 02144,0.00005092,0.00062385,0.00021071,-0.00007320,-0.00004576,0.00001
 400,0.00042554,-0.00019611,0.00001735,0.00004526,0.00011722,0.00011438
 ,0.00000997,-0.00000240,0.00000070,-0.00001552,-0.00000075,0.00000525,
 0.00001072,-0.00001348,-0.00001323,-0.12948039,-0.09120883,-0.18027858
 ,0.13965920,0.09900402,0.18540037,0.00000115,-0.00000024,-0.00000710,-
 0.00000198,0.00000791,0.00000280,-0.00000074,-0.00000640,-0.00000018,0
 .00001057,-0.00000016,-0.00000220,-0.00000597,0.00000684,0.00000839,-0
 .00000054,0.00000336,-0.00000262,-0.00007038,0.00002538,-0.00002444,0.
 00001746,0.00005524,0.00001273,-0.00000209,-0.00001856,-0.00001454,0.0
 0011532,-0.00009893,0.00010933,0.00000856,-0.00000313,0.00000169,-0.00
 038230,-0.00034714,0.00016529,0.00044626,-0.00044065,0.00125151,0.0003
 6761,0.00019516,0.00013251,-0.00005383,0.00015073,0.00007339,0.0020759
 7,-0.00016136,-0.00382198,0.00049823,-0.00083701,0.00140184,-0.0000759
 1,-0.00106424,0.00026288,-0.00020005,0.00021685,0.00039271,0.00004943,
 0.00009377,-0.00002185,0.00023210,-0.00007983,0.00010863,-0.00002850,-
 0.00005116,0.00000374,0.00001150,0.00000962,-0.00000500,-0.00000819,0.
 00001907,0.00001566,-0.08414060,0.07328019,-0.10803278,-0.00287711,0.0
 0932029,-0.00949822,0.08390857,-0.00000580,-0.00000120,0.00000367,-0.0
 0000099,0.00000407,0.00000323,-0.00000342,-0.00000209,-0.00000235,0.00
 000411,-0.00000245,-0.00000362,-0.00004101,-0.00001339,-0.00001489,0.0
 0000797,0.00000581,-0.00001000,-0.00015186,0.00014211,0.00006121,0.000
 06872,0.00004101,0.00003055,-0.00004075,-0.00003132,-0.00003557,-0.000
 17316,-0.00032464,-0.00018149,0.00015546,0.00017834,-0.00012922,-0.000
 34494,0.00007473,0.00026995,0.00139759,0.00151685,0.00171965,-0.000526
 43,-0.00002658,-0.00108060,0.00004958,0.00042343,-0.00034969,0.0105974
 5,-0.00991365,0.02115570,0.00082622,-0.00515407,-0.00085432,-0.0005479
 8,-0.00076119,0.00063849,0.00034391,0.00012775,-0.00053290,0.00007732,
 -0.00000529,-0.00005713,0.00031225,-0.00001203,-0.00051042,-0.00000472
 ,-0.00004501,0.00000950,0.00000880,0.00000942,-0.00000446,-0.00001306,
 0.00001122,0.00001578,0.07523817,-0.14411449,0.10723952,-0.00694263,0.
 00931420,-0.00999392,-0.08037381,0.14850367,0.00001246,-0.00001039,-0.
 00000399,-0.00000162,-0.00001170,-0.00000506,-0.00000014,0.00000660,0.
 00000375,-0.00000151,0.00000447,0.00000193,0.00000925,0.00001841,-0.00
 000357,0.00000367,-0.00000830,0.00000231,0.00015650,-0.00015376,-0.000
 03477,-0.00006685,-0.00007419,-0.00004845,-0.00001187,0.00002706,0.000
 00689,-0.00025679,0.00033404,0.00013015,0.00002136,-0.00007762,-0.0000
 1180,0.00041751,-0.00000401,-0.00012841,-0.00023910,-0.00036373,0.0010
 3992,0.00032868,0.00035655,0.00000872,0.00016064,0.00001938,0.00002497
 ,0.00248758,-0.00421838,0.00514641,-0.00030588,-0.00034924,0.00042003,
 -0.00004875,0.00049147,-0.00029096,-0.00000670,0.00005438,-0.00011921,
 0.00012666,-0.00013113,-0.00004060,-0.00007896,0.00008597,-0.00009083,
 0.00003777,0.00010055,0.00001482,-0.00000978,-0.00001703,0.00000189,0.
 00000770,-0.00001474,-0.00003065,-0.11316973,0.10931738,-0.17405571,-0
 .00704006,0.01209372,-0.00832373,0.11749029,-0.11737182,0.17639130,-0.
 00020056,-0.00128515,-0.00007642,0.00026175,-0.00004039,0.00044776,0.0
 0038096,-0.00027226,0.00084058,0.00009330,0.00012933,-0.00009463,-0.00
 222871,0.01148248,-0.01527007,-0.00013032,0.00375045,0.00106797,0.0012
 3665,-0.00061451,-0.00168737,0.00019768,-0.00025920,0.00043004,-0.0005
 3843,0.00013357,0.00078526,-0.00058924,-0.00002406,0.00020079,0.000262
 15,-0.00022175,0.00015530,-0.00021042,0.00023509,-0.00018304,0.0001192
 8,0.00002277,0.00001764,-0.00003501,-0.00004035,0.00004530,-0.00004912
 ,0.00005361,0.00001752,0.00002312,0.00001984,0.00003221,0.00001317,-0.
 00000725,0.00000498,-0.00000320,-0.00001295,-0.00003313,0.00000181,-0.
 00000287,0.00001514,-0.00003053,-0.00000369,-0.00000195,0.00000108,0.0
 0000801,0.00000358,-0.11107376,0.01641690,-0.03120496,0.00559690,-0.01
 780162,0.02281228,-0.00983361,0.01875201,-0.02572320,-0.00006289,-0.00
 001230,0.00005796,-0.00000268,0.00000284,-0.00002624,0.00005676,0.0000
 2786,-0.00002314,0.29583039,0.00063510,0.00189341,0.00001776,0.0002398
 4,0.00024298,0.00050669,-0.00004630,-0.00082278,0.00020130,-0.00048718
 ,-0.00042115,0.00036600,0.01217118,-0.02462823,0.03611342,0.00267954,-
 0.00812686,-0.00232362,-0.00187108,0.00169298,0.00120290,-0.00018367,0
 .00033461,-0.00036454,0.00023075,0.00048506,-0.00072577,-0.00009719,-0
 .00067379,-0.00001543,-0.00005676,0.00002249,-0.00008903,0.00009703,0.
 00027017,0.00002650,0.00008831,0.00031991,0.00017055,-0.00000036,-0.00
 001486,-0.00003507,-0.00007407,0.00003872,0.00004532,-0.00001125,-0.00
 009379,-0.00012104,-0.00000169,0.00002417,0.00000103,0.00005598,0.0000
 5853,0.00005218,-0.00000788,-0.00000651,-0.00001578,0.00006273,-0.0000
 0020,-0.00000185,-0.00002594,0.00001622,0.00000427,0.04586164,-0.10249
 880,0.05218878,-0.00140357,-0.00588869,0.01185335,-0.00118887,0.006749
 40,0.00157373,0.00002891,-0.00005085,0.00004109,0.00002658,0.00004356,
 0.00001800,-0.00000756,-0.00000586,-0.00004044,0.02343460,0.21458384,-
 0.00128144,-0.00110330,-0.00034320,0.00043814,-0.00030082,0.00077623,0
 .00094489,0.00016441,0.00144803,0.00015790,-0.00001342,0.00011108,-0.0
 0108560,0.01021745,0.00010773,0.00003902,-0.00039109,0.00137333,0.0001
 8114,0.00042338,-0.00003090,-0.00034339,0.00012969,0.00026903,-0.00030
 692,0.00000873,0.00040473,-0.00042220,-0.00023614,0.00003687,0.0001973
 5,-0.00016756,0.00013530,-0.00001027,0.00026941,-0.00024429,0.00011029
 ,0.00008509,-0.00011105,-0.00009377,-0.00001655,0.00013673,-0.00002926
 ,0.00002998,0.00007100,0.00002063,0.00001773,0.00005564,0.00003215,-0.
 00002609,0.00002225,-0.00001103,-0.00001147,-0.00003783,-0.00000540,-0
 .00000380,0.00002244,-0.00002360,-0.00000162,0.00000301,0.00000270,0.0
 0000158,0.00000223,-0.06681722,0.05464651,-0.12123627,-0.00152021,0.01
 310860,-0.02010291,-0.00915265,0.02014385,-0.02959263,-0.00008435,0.00
 004304,0.00001540,0.00003043,-0.00001749,-0.00000070,0.00002212,-0.000
 01058,-0.00001661,0.00365035,-0.14799212,0.22184889,-0.00003226,-0.000
 02559,-0.00003016,0.00013245,-0.00013248,0.00002162,-0.00018889,-0.000
 04484,0.00011090,0.00015460,0.00021532,-0.00012727,0.00159957,0.000714
 68,-0.00102050,-0.00009203,0.00009216,0.00001762,-0.00059085,-0.000546
 81,0.00000715,0.00036171,0.00003846,-0.00023601,-0.00031328,0.00095114
 ,-0.00026878,-0.00030275,-0.00081863,-0.00101870,-0.00014981,0.0005799
 1,0.00000199,0.00023766,0.00081806,0.00060785,0.00015374,0.00021324,0.
 00006197,0.00006035,-0.00007564,-0.00008178,-0.00013155,0.00010755,0.0
 0007583,0.00002964,-0.00000375,-0.00004677,-0.00001476,0.00003835,-0.0
 0002404,0.00002978,0.00002560,-0.00001669,0.00001218,-0.00001107,0.000
 00079,-0.00002107,-0.00001452,-0.00000735,-0.00001768,0.00003575,0.000
 01465,0.00166322,-0.00137386,0.01088475,0.00419838,-0.00099459,-0.0011
 2890,0.00315278,0.00102767,-0.00055348,-0.00006755,-0.00010700,0.00020
 464,-0.00002605,0.00003990,-0.00005243,0.00014249,0.00007030,-0.000123
 94,-0.16723228,-0.03509232,0.06918714,0.19521971,0.00004551,-0.0000888
 4,0.00020421,0.00011676,-0.00008483,-0.00004815,-0.00022040,-0.0001293
 1,0.00002949,0.00012982,0.00019460,-0.00012930,-0.00055202,0.00023145,
 0.00032062,0.00024357,0.00013181,-0.00025352,0.00124393,-0.00212082,-0
 .00145944,0.00027166,-0.00061980,0.00060945,0.00114054,-0.00222734,0.0
 0108367,0.00021361,-0.00012182,-0.00021736,0.00004366,-0.00004053,0.00
 001996,-0.00024145,-0.00060804,0.00001421,-0.00007621,-0.00023756,0.00
 027370,0.00006015,0.00000778,-0.00013333,0.00006203,0.00004385,-0.0000
 9524,-0.00004160,-0.00006346,-0.00013426,-0.00002812,0.00004897,-0.000
 01894,0.00005460,0.00004698,0.00005265,0.00000438,-0.00000633,-0.00002
 372,0.00004316,-0.00000092,-0.00000778,-0.00002445,0.00002487,0.000004
 67,-0.03183088,-0.00823588,0.01299209,0.00224391,-0.00344024,0.0023707
 1,0.00189785,0.00185948,-0.00185075,0.00007787,-0.00014280,0.00010849,
 -0.00002187,0.00006571,-0.00001758,0.00007692,0.00003981,-0.00005012,-
 0.05385411,-0.07773729,0.05046752,-0.02042763,0.56794429,-0.00012957,0
 .00037709,-0.00053510,0.00004758,0.00006917,0.00022348,-0.00002017,-0.
 00004178,0.00024321,-0.00010810,-0.00009323,-0.00003904,-0.00151500,-0
 .00151232,0.00264572,0.00020308,-0.00073365,0.00003190,-0.00003333,0.0
 0066732,-0.00032589,-0.00021734,0.00013729,0.00034332,0.00013412,-0.00
 038884,0.00036622,-0.00041194,-0.00069505,-0.00031655,-0.00005677,0.00
 030117,0.00005342,0.00038962,0.00067492,0.00014485,0.00009694,0.000401
 37,-0.00023359,-0.00007539,-0.00005785,0.00010431,-0.00015367,0.000041
 26,0.00010722,0.00003344,-0.00000359,0.00009837,0.00002465,-0.00000730
 ,0.00001566,-0.00001053,-0.00000147,-0.00006378,-0.00000451,-0.0000064
 8,0.00002665,-0.00003753,-0.00000709,0.00000367,-0.00000094,0.00000857
 ,0.00000796,0.03673844,0.01066504,-0.02550426,-0.00273714,0.00675600,-
 0.00449031,0.00262565,-0.00179934,0.00482063,-0.00014614,0.00004325,0.
 00005917,0.00002415,-0.00001993,-0.00001928,0.00002859,0.00000872,-0.0
 0006155,0.04138969,0.02250044,-0.05330021,-0.11106553,0.05686112,0.111
 24603,0.00009622,-0.00007158,0.00000827,-0.00000790,-0.00003664,-0.000
 00396,-0.00006213,0.00001359,0.00002308,0.00003389,0.00004857,-0.00002
 039,-0.00052796,-0.00042785,0.00054130,0.00014565,-0.00005300,-0.00011
 981,0.00005988,0.00018426,0.00053124,-0.00012160,0.00020594,-0.0002920
 9,0.00014697,-0.00025091,-0.00061545,0.00017546,0.00043855,0.00013934,
 -0.00008927,-0.00008462,-0.00006380,0.00008508,-0.00003386,0.00005347,
 -0.00000759,-0.00005622,-0.00006957,0.00002629,0.00003058,0.00002163,0
 .00002522,-0.00006633,-0.00000891,0.00004184,0.00007826,0.00007599,0.0
 0000039,-0.00005680,0.00000462,-0.00005299,-0.00005410,-0.00000386,-0.
 00000184,0.00001484,0.00000297,-0.00001259,0.00000983,0.00000638,0.000
 02774,-0.00003943,-0.00001376,-0.00419692,-0.00027753,-0.00102996,0.00
 029077,-0.00041345,0.00029536,0.00065214,0.00064147,-0.00042802,0.0000
 3088,0.00010460,-0.00020607,0.00000256,-0.00005632,0.00003662,-0.00009
 378,-0.00001513,0.00012475,-0.01185424,-0.04505651,0.00617309,-0.03796
 744,0.09934881,0.03498768,0.05315529,-0.00013404,0.00008583,0.00004551
 ,0.00001238,0.00009723,0.00003401,-0.00000091,-0.00008457,-0.00003820,
 -0.00002555,-0.00004067,-0.00001794,-0.00017000,0.00010053,-0.00029500
 ,-0.00006753,0.00019807,0.00004096,0.00020020,0.00010208,-0.00078850,-
 0.00003614,-0.00002265,0.00026790,0.00021186,-0.00044915,0.00046694,-0
 .00018656,-0.00021340,-0.00007370,0.00001935,0.00005069,0.00003132,0.0
 0012620,0.00007579,0.00006357,0.00003552,0.00006813,-0.00006396,-0.000
 01919,-0.00001090,0.00002865,-0.00003724,0.00001350,0.00002804,0.00001
 904,0.00001041,0.00003625,0.00000645,-0.00000744,0.00000305,-0.0000076
 8,-0.00000892,-0.00002191,0.00000156,0.00000126,0.00000943,-0.00002034
 ,-0.00000125,-0.00000115,0.00000328,-0.00000191,0.00000225,-0.00035658
 ,-0.00252085,0.00119876,0.00003553,0.00033039,-0.00031173,-0.00020693,
 -0.00033827,0.00015137,-0.00004216,0.00000069,0.00002117,-0.00000411,-
 0.00000337,-0.00001615,0.00002884,0.00002085,-0.00001338,-0.00001692,-
 0.00580637,0.00053507,0.05470065,-0.47473378,-0.09414481,-0.05406899,0
 .48308804,0.00006966,-0.00015741,-0.00001184,-0.00004210,-0.00002453,-
 0.00006103,0.00005501,0.00000685,-0.00004830,-0.00003444,-0.00001701,0
 .00003475,-0.00018317,0.00008225,-0.00073764,-0.00011396,0.00014972,0.
 00011150,0.00010137,-0.00019086,-0.00023797,0.00004031,-0.00013646,0.0
 0007563,-0.00022409,0.00023650,0.00024150,-0.00002291,0.00028547,0.000
 09833,0.00003462,-0.00004529,0.00002133,-0.00009311,-0.00001757,-0.000
 01959,-0.00005490,-0.00008560,0.00008610,0.00000747,0.00001651,-0.0000
 3248,0.00003898,-0.00003229,-0.00003666,-0.00001020,0.00001396,-0.0000
 3140,-0.00000907,0.00000271,-0.00000708,-0.00000866,-0.00001153,0.0000
 3988,0.00000198,0.00000502,-0.00001922,0.00001693,0.00000494,-0.000000
 67,0.00000723,-0.00001243,-0.00000978,0.00445929,0.00275842,0.00064574
 ,-0.00022628,0.00050712,-0.00083057,-0.00064707,-0.00000980,-0.0007960
 9,0.00011615,-0.00001258,-0.00007316,-0.00003092,0.00000635,0.00001092
 ,-0.00005321,-0.00001299,0.00007280,0.00234981,0.02484139,-0.00182331,
 0.03460544,-0.12097306,-0.03565221,-0.04015015,0.09282219,0.03899052\\
 -0.00000026,0.00000122,-0.00000156,-0.00000052,0.00000210,-0.00000626,
 -0.00000148,0.00000502,0.00000088,0.00000043,-0.00000144,-0.00000074,0
 .00000034,-0.00000155,-0.00000105,0.00000160,-0.00000592,-0.00000261,-
 0.00000064,0.00000123,-0.00000149,-0.00000044,0.00000271,-0.00000645,-
 0.00000104,0.00000462,-0.00000030,0.00000104,-0.00000154,-0.00000063,0
 .00000161,-0.00000548,-0.00000350,0.00000055,-0.00000271,0.00000271,-0
 .00000051,0.00000168,-0.00000382,-0.00000175,0.00000556,-0.00000142,-0
 .00000073,0.00000243,-0.00000802,0.00000025,-0.00000140,-0.00000274,0.
 00000165,-0.00000539,-0.00000468,-0.00000094,0.00000243,-0.00000570,-0
 .00000178,0.00000620,-0.00000436,0.00000010,0.00000020,-0.00000555,-0.
 00000058,0.00000260,-0.00001040,0.00000161,-0.00000317,0.00000486,0.00
 000169,-0.00000582,0.00000626,0.00000156,-0.00000594,0.00000779,0.0000
 0192,-0.00000188,0.00000219,0.00000124,-0.00000443,0.00000492,-0.00000
 136,0.00000177,0.00000640,-0.00000170,0.00000081,0.00001035,-0.0000006
 3,0.00000348,0.00001077,-0.00000121,0.00000262,0.00001416\\\@
 Job cpu time:  0 days  7 hours 30 minutes  1.7 seconds.
 File lengths (MBytes):  RWF=  72140 Int=      0 D2E=      0 Chk=     32 Scr=      1
 Normal termination of Gaussian 09 at Sun Feb  9 17:18:51 2014.
