 Entering Gaussian System, Link 0=g09
 Initial command:
 /usr/caen/gaussian-09revc/g09/l1.exe /scratch/avioli_flux/hetanjin/scratch/Gau-13943.inp -scrdir=/scratch/avioli_flux/hetanjin/scratch/
 Entering Link 1 = /usr/caen/gaussian-09revc/g09/l1.exe PID=     13944.
  
 Copyright (c) 1988,1990,1992,1993,1995,1998,2003,2009,2011,
            Gaussian, Inc.  All Rights Reserved.
  
 This is part of the Gaussian(R) 09 program.  It is based on
 the Gaussian(R) 03 system (copyright 2003, Gaussian, Inc.),
 the Gaussian(R) 98 system (copyright 1998, Gaussian, Inc.),
 the Gaussian(R) 94 system (copyright 1995, Gaussian, Inc.),
 the Gaussian 92(TM) system (copyright 1992, Gaussian, Inc.),
 the Gaussian 90(TM) system (copyright 1990, Gaussian, Inc.),
 the Gaussian 88(TM) system (copyright 1988, Gaussian, Inc.),
 the Gaussian 86(TM) system (copyright 1986, Carnegie Mellon
 University), and the Gaussian 82(TM) system (copyright 1983,
 Carnegie Mellon University). Gaussian is a federally registered
 trademark of Gaussian, Inc.
  
 This software contains proprietary and confidential information,
 including trade secrets, belonging to Gaussian, Inc.
  
 This software is provided under written license and may be
 used, copied, transmitted, or stored only in accord with that
 written license.
  
 The following legend is applicable only to US Government
 contracts under FAR:
  
                    RESTRICTED RIGHTS LEGEND
  
 Use, reproduction and disclosure by the US Government is
 subject to restrictions as set forth in subparagraphs (a)
 and (c) of the Commercial Computer Software - Restricted
 Rights clause in FAR 52.227-19.
  
 Gaussian, Inc.
 340 Quinnipiac St., Bldg. 40, Wallingford CT 06492
  
  
 ---------------------------------------------------------------
 Warning -- This program may not be used in any manner that
 competes with the business of Gaussian, Inc. or will provide
 assistance to any competitor of Gaussian, Inc.  The licensee
 of this program is prohibited from giving any competitor of
 Gaussian, Inc. access to this program.  By using this program,
 the user acknowledges that Gaussian, Inc. is engaged in the
 business of creating and licensing software in the field of
 computational chemistry and represents and warrants to the
 licensee that it is not a competitor of Gaussian, Inc. and that
 it will not use this program in any manner prohibited above.
 ---------------------------------------------------------------
  

 Cite this work as:
 Gaussian 09, Revision C.01,
 M. J. Frisch, G. W. Trucks, H. B. Schlegel, G. E. Scuseria, 
 M. A. Robb, J. R. Cheeseman, G. Scalmani, V. Barone, B. Mennucci, 
 G. A. Petersson, H. Nakatsuji, M. Caricato, X. Li, H. P. Hratchian, 
 A. F. Izmaylov, J. Bloino, G. Zheng, J. L. Sonnenberg, M. Hada, 
 M. Ehara, K. Toyota, R. Fukuda, J. Hasegawa, M. Ishida, T. Nakajima, 
 Y. Honda, O. Kitao, H. Nakai, T. Vreven, J. A. Montgomery, Jr., 
 J. E. Peralta, F. Ogliaro, M. Bearpark, J. J. Heyd, E. Brothers, 
 K. N. Kudin, V. N. Staroverov, T. Keith, R. Kobayashi, J. Normand, 
 K. Raghavachari, A. Rendell, J. C. Burant, S. S. Iyengar, J. Tomasi, 
 M. Cossi, N. Rega, J. M. Millam, M. Klene, J. E. Knox, J. B. Cross, 
 V. Bakken, C. Adamo, J. Jaramillo, R. Gomperts, R. E. Stratmann, 
 O. Yazyev, A. J. Austin, R. Cammi, C. Pomelli, J. W. Ochterski, 
 R. L. Martin, K. Morokuma, V. G. Zakrzewski, G. A. Voth, 
 P. Salvador, J. J. Dannenberg, S. Dapprich, A. D. Daniels, 
 O. Farkas, J. B. Foresman, J. V. Ortiz, J. Cioslowski, 
 and D. J. Fox, Gaussian, Inc., Wallingford CT, 2010.
 
 ******************************************
 Gaussian 09:  EM64L-G09RevC.01 23-Sep-2011
                 7-Feb-2014 
 ******************************************
 %mem=30GB
 %nprocshared=8
 Will use up to    8 processors via shared memory.
 %chk=C9H18OOH_1_26_c.chk
 --------------------------------------------------
 #p UB3LYP/6-311++G(d,p) guess=mix stable=(opt,xqc)
 --------------------------------------------------
 1/38=1/1;
 2/12=2,17=6,18=5,40=1/2;
 3/5=4,6=6,7=1111,11=2,16=1,25=1,30=1,74=-5,116=2/1,2,3;
 4/13=-1/1;
 5/5=2,38=5/2;
 6/7=2,8=2,9=2,10=2,28=1/1;
 8/6=1,10=90,11=11/1;
 9/8=-3,42=1,46=1/14;
 5/5=2,8=3,13=1,17=40,38=5/2,8(-2);
 6/7=2,8=2,9=2,10=2,28=1/1;
 99/5=1,9=1/99;
 Leave Link    1 at Fri Feb  7 19:15:10 2014, MaxMem= 4026531840 cpu:       0.7
 (Enter /usr/caen/gaussian-09revc/g09/l101.exe)
 --------------------------------------------
 C9H18OOH_1_26_c using cbs-qb3 to cal. energy
 --------------------------------------------
 Charge =  0 Multiplicity = 2
 Symbolic Z-Matrix:
 C                    -3.03789  -1.85868  -0.12174 
 H                    -2.65621  -2.88547  -0.11092 
 H                    -3.39964  -1.66876  -1.14453 
 H                    -3.9106   -1.8059    0.53527 
 C                    -1.97923  -0.87699   0.27215 
 C                    -0.62348  -1.02397  -0.35589 
 H                    -0.39624  -2.09558  -0.43626 
 H                    -0.67864  -0.66353  -1.39847 
 C                     0.55033  -0.31549   0.33742 
 H                     0.58692  -0.61623   1.39234 
 H                     0.38092   0.76436   0.32264 
 C                     1.89519  -0.6374   -0.3265 
 H                     1.8636   -0.32643  -1.37982 
 H                     2.02878  -1.72667  -0.33681 
 C                     3.12883  -0.00187   0.34268 
 H                     3.10697  -0.2752    1.40692 
 C                     4.42098  -0.57165  -0.25973 
 H                     4.49082  -0.33538  -1.32737 
 H                     5.30577  -0.15411   0.2301 
 H                     4.46333  -1.66007  -0.15681 
 C                    -2.413     0.37954   0.94209 
 H                    -3.14417   0.17301   1.7326 
 H                    -1.58278   0.94813   1.36794 
 C                     3.12426   1.53101   0.2489 
 H                     4.01203   1.95439   0.72812 
 H                     3.1267    1.8544   -0.79832 
 H                     2.24887   1.97184   0.73201 
 O                    -3.18877   1.26473   0.08709 
 O                    -2.29218   1.74755  -0.96111 
 H                    -2.39485   2.7018   -0.84275 
 
 NAtoms=     30 NQM=        0 NQMF=       0 NMMI=     30 NMMIF=      0
                NMic=       0 NMicF=      0.
                    Isotopes and Nuclear Properties:
 (Nuclear quadrupole moments (NQMom) in fm**2, nuclear magnetic moments (NMagM)
  in nuclear magnetons)

  Atom         1           2           3           4           5           6           7           8           9          10
 IAtWgt=          12           1           1           1          12          12           1           1          12           1
 AtmWgt=  12.0000000   1.0078250   1.0078250   1.0078250  12.0000000  12.0000000   1.0078250   1.0078250  12.0000000   1.0078250
 NucSpn=           0           1           1           1           0           0           1           1           0           1
 AtZEff=   0.0000000   0.0000000   0.0000000   0.0000000   0.0000000   0.0000000   0.0000000   0.0000000   0.0000000   0.0000000
 NQMom=    0.0000000   0.0000000   0.0000000   0.0000000   0.0000000   0.0000000   0.0000000   0.0000000   0.0000000   0.0000000
 NMagM=    0.0000000   2.7928460   2.7928460   2.7928460   0.0000000   0.0000000   2.7928460   2.7928460   0.0000000   2.7928460

  Atom        11          12          13          14          15          16          17          18          19          20
 IAtWgt=           1          12           1           1          12           1          12           1           1           1
 AtmWgt=   1.0078250  12.0000000   1.0078250   1.0078250  12.0000000   1.0078250  12.0000000   1.0078250   1.0078250   1.0078250
 NucSpn=           1           0           1           1           0           1           0           1           1           1
 AtZEff=   0.0000000   0.0000000   0.0000000   0.0000000   0.0000000   0.0000000   0.0000000   0.0000000   0.0000000   0.0000000
 NQMom=    0.0000000   0.0000000   0.0000000   0.0000000   0.0000000   0.0000000   0.0000000   0.0000000   0.0000000   0.0000000
 NMagM=    2.7928460   0.0000000   2.7928460   2.7928460   0.0000000   2.7928460   0.0000000   2.7928460   2.7928460   2.7928460

  Atom        21          22          23          24          25          26          27          28          29          30
 IAtWgt=          12           1           1          12           1           1           1          16          16           1
 AtmWgt=  12.0000000   1.0078250   1.0078250  12.0000000   1.0078250   1.0078250   1.0078250  15.9949146  15.9949146   1.0078250
 NucSpn=           0           1           1           0           1           1           1           0           0           1
 AtZEff=   0.0000000   0.0000000   0.0000000   0.0000000   0.0000000   0.0000000   0.0000000   0.0000000   0.0000000   0.0000000
 NQMom=    0.0000000   0.0000000   0.0000000   0.0000000   0.0000000   0.0000000   0.0000000   0.0000000   0.0000000   0.0000000
 NMagM=    0.0000000   2.7928460   2.7928460   0.0000000   2.7928460   2.7928460   2.7928460   0.0000000   0.0000000   2.7928460
 Leave Link  101 at Fri Feb  7 19:15:11 2014, MaxMem= 4026531840 cpu:       0.4
 (Enter /usr/caen/gaussian-09revc/g09/l202.exe)
                          Input orientation:                          
 ---------------------------------------------------------------------
 Center     Atomic      Atomic             Coordinates (Angstroms)
 Number     Number       Type             X           Y           Z
 ---------------------------------------------------------------------
      1          6           0       -3.037893   -1.858678   -0.121736
      2          1           0       -2.656209   -2.885471   -0.110915
      3          1           0       -3.399640   -1.668756   -1.144530
      4          1           0       -3.910595   -1.805897    0.535266
      5          6           0       -1.979228   -0.876985    0.272146
      6          6           0       -0.623476   -1.023965   -0.355888
      7          1           0       -0.396236   -2.095582   -0.436261
      8          1           0       -0.678641   -0.663533   -1.398473
      9          6           0        0.550327   -0.315488    0.337420
     10          1           0        0.586920   -0.616234    1.392342
     11          1           0        0.380920    0.764356    0.322643
     12          6           0        1.895186   -0.637399   -0.326499
     13          1           0        1.863603   -0.326433   -1.379815
     14          1           0        2.028780   -1.726672   -0.336810
     15          6           0        3.128829   -0.001867    0.342675
     16          1           0        3.106971   -0.275196    1.406918
     17          6           0        4.420981   -0.571647   -0.259726
     18          1           0        4.490822   -0.335379   -1.327365
     19          1           0        5.305767   -0.154110    0.230096
     20          1           0        4.463334   -1.660074   -0.156807
     21          6           0       -2.412997    0.379543    0.942094
     22          1           0       -3.144171    0.173012    1.732600
     23          1           0       -1.582783    0.948127    1.367938
     24          6           0        3.124264    1.531010    0.248896
     25          1           0        4.012025    1.954391    0.728116
     26          1           0        3.126702    1.854401   -0.798321
     27          1           0        2.248867    1.971838    0.732014
     28          8           0       -3.188767    1.264731    0.087085
     29          8           0       -2.292176    1.747552   -0.961108
     30          1           0       -2.394853    2.701798   -0.842748
 ---------------------------------------------------------------------
                    Distance matrix (angstroms):
                    1          2          3          4          5
     1  C    0.000000
     2  H    1.095492   0.000000
     3  H    1.101380   1.761092   0.000000
     4  H    1.093639   1.776658   1.761135   0.000000
     5  C    1.496541   2.153847   2.156720   2.159233   0.000000
     6  C    2.565343   2.767168   2.957160   3.494385   1.501364
     7  H    2.670843   2.416041   3.115166   3.657663   2.119595
     8  H    2.936750   3.241233   2.911837   3.935717   2.127923
     9  C    3.932885   4.133726   4.430547   4.707471   2.591947
    10  H    4.120118   4.234041   4.841093   4.730488   2.812107
    11  H    4.331981   4.767952   4.729193   5.006846   2.875213
    12  C    5.086130   5.080896   5.456011   5.984573   3.927704
    13  H    5.287268   5.346726   5.436811   6.260808   4.218937
    14  H    5.072954   4.831456   5.488489   6.003580   4.142092
    15  C    6.456925   6.479782   6.900087   7.269464   5.182958
    16  H    6.527140   6.506274   7.126562   7.235265   5.245882
    17  C    7.570356   7.447318   7.946612   8.459938   6.429525
    18  H    7.775315   7.685231   8.004418   8.730156   6.686802
    19  H    8.523262   8.424351   8.942475   9.368183   7.320893
    20  H    7.503938   7.224375   7.924773   8.403744   6.504140
    21  C    2.555751   3.439229   3.085935   2.680384   1.488573
    22  H    2.752748   3.604299   3.425675   2.436616   2.143015
    23  H    3.494943   4.246849   4.057283   3.700905   2.165401
    24  C    7.042693   7.283449   7.398747   7.791418   5.643103
    25  H    8.059968   8.282124   8.459715   8.771822   6.642267
    26  H    7.228205   7.508726   7.424664   8.043618   5.888709
    27  H    6.584191   6.954405   6.977175   7.228344   5.118990
    28  O    3.134015   4.188914   3.188525   3.186010   2.466613
    29  O    3.776974   4.724431   3.596009   4.181557   2.916684
    30  H    4.661684   5.641051   4.494709   4.951334   3.771395
                    6          7          8          9         10
     6  C    0.000000
     7  H    1.098390   0.000000
     8  H    1.104508   1.748247   0.000000
     9  C    1.536369   2.159467   2.155185   0.000000
    10  H    2.165089   2.549285   3.064724   1.097564   0.000000
    11  H    2.160395   3.059273   2.474627   1.093151   1.758613
    12  C    2.548324   2.718264   2.788261   1.533969   2.160190
    13  H    2.778586   3.021102   2.564564   2.161876   3.065739
    14  H    2.743834   2.454931   3.096372   2.152173   2.510378
    15  C    3.951261   4.173304   4.238659   2.597510   2.817898
    16  H    4.193373   4.357014   4.727778   2.771620   2.543064
    17  C    5.065608   5.055603   5.226025   3.924814   4.175086
    18  H    5.251092   5.270267   5.180356   4.277780   4.766145
    19  H    6.021291   6.060213   6.222932   4.759388   4.881792
    20  H    5.130293   4.887042   5.382819   4.166989   4.303028
    21  C    2.618583   3.477561   3.094229   3.103222   3.192773
    22  H    3.485461   4.171525   4.072133   3.979256   3.828802
    23  H    2.789443   3.731915   3.326853   2.684930   2.674964
    24  C    4.575939   5.100542   4.689555   3.168997   3.515144
    25  H    5.615473   6.098428   5.777392   4.157926   4.333665
    26  H    4.748113   5.305143   4.602261   3.554720   4.165757
    27  H    4.290539   4.990525   4.478220   2.876213   3.145825
    28  O    3.466276   4.400435   3.496544   4.067012   4.415602
    29  O    3.291224   4.317376   2.933959   3.744614   4.406292
    30  H    4.154049   5.212922   3.818333   4.378458   4.989583
                   11         12         13         14         15
    11  H    0.000000
    12  C    2.163170   0.000000
    13  H    2.507296   1.098714   0.000000
    14  H    3.058683   1.097483   1.753799   0.000000
    15  C    2.852806   1.540639   2.161738   2.155634   0.000000
    16  H    3.112503   2.145775   3.051962   2.511945   1.098999
    17  C    4.294898   2.527533   2.802662   2.657565   1.535315
    18  H    4.563249   2.798263   2.627758   2.996422   2.180662
    19  H    5.010615   3.489331   3.803946   3.678720   2.185157
    20  H    4.772194   2.769484   3.167483   2.442108   2.186329
    21  C    2.887520   4.604774   4.917212   5.079480   5.587183
    22  H    3.842386   5.503796   5.917294   5.886483   6.427519
    23  H    2.232161   4.181062   4.588271   4.806673   4.914564
    24  C    2.849409   2.558068   2.773456   3.486492   1.535750
    25  H    3.842592   3.508646   3.776407   4.314806   2.180721
    26  H    3.159759   2.819276   2.586424   3.773925   2.178900
    27  H    2.261598   2.837897   3.144885   3.856138   2.195775
    28  O    3.612275   5.443871   5.496366   6.029177   6.448381
    29  O    3.124121   4.860527   4.663392   5.579484   5.843596
    30  H    3.580047   5.460878   5.252911   6.279797   6.263074
                   16         17         18         19         20
    16  H    0.000000
    17  C    2.142944   0.000000
    18  H    3.065121   1.095698   0.000000
    19  H    2.496853   1.094125   1.767110   0.000000
    20  H    2.490551   1.094102   1.767987   1.768422   0.000000
    21  C    5.578063   7.003741   7.302347   7.769881   7.256139
    22  H    6.275646   7.858461   8.241054   8.588712   8.050105
    23  H    4.846837   6.403451   6.767623   7.068361   6.758927
    24  C    2.145622   2.522169   2.799194   2.756617   3.484354
    25  H    2.500191   2.742981   3.114048   2.523404   3.748483
    26  H    3.065722   2.801955   2.633600   3.136891   3.814402
    27  H    2.498199   3.488688   3.819772   3.757155   4.345647
    28  O    6.614352   7.835868   7.971017   8.613401   8.195646
    29  O    6.232964   7.137023   7.105055   7.922375   7.608924
    30  H    6.647824   7.583597   7.541341   8.282919   8.156664
                   21         22         23         24         25
    21  C    0.000000
    22  H    1.096435   0.000000
    23  H    1.092651   1.780931   0.000000
    24  C    5.698040   6.583222   4.873223   0.000000
    25  H    6.618674   7.442677   5.720473   1.094085   0.000000
    26  H    5.991036   6.968248   5.262439   1.096016   1.767429
    27  H    4.930772   5.772504   4.016706   1.092727   1.763249
    28  O    1.454791   1.975236   2.078463   6.320716   7.262090
    29  O    2.346961   3.234368   2.562572   5.554172   6.529871
    30  H    2.928969   3.686279   2.936316   5.746571   6.638849
                   26         27         28         29         30
    26  H    0.000000
    27  H    1.768138   0.000000
    28  O    6.404436   5.521213   0.000000
    29  O    5.422375   4.851602   1.461403   0.000000
    30  H    5.586379   4.957505   1.886810   0.967025   0.000000
 Stoichiometry    C9H19O2(2)
 Framework group  C1[X(C9H19O2)]
 Deg. of freedom    84
 Full point group                 C1      NOp   1
 Largest Abelian subgroup         C1      NOp   1
 Largest concise Abelian subgroup C1      NOp   1
                         Standard orientation:                         
 ---------------------------------------------------------------------
 Center     Atomic      Atomic             Coordinates (Angstroms)
 Number     Number       Type             X           Y           Z
 ---------------------------------------------------------------------
      1          6           0       -3.037893   -1.858678   -0.121736
      2          1           0       -2.656209   -2.885471   -0.110915
      3          1           0       -3.399640   -1.668756   -1.144530
      4          1           0       -3.910595   -1.805897    0.535266
      5          6           0       -1.979228   -0.876985    0.272146
      6          6           0       -0.623476   -1.023965   -0.355888
      7          1           0       -0.396236   -2.095582   -0.436261
      8          1           0       -0.678641   -0.663533   -1.398473
      9          6           0        0.550327   -0.315488    0.337420
     10          1           0        0.586920   -0.616234    1.392342
     11          1           0        0.380920    0.764356    0.322643
     12          6           0        1.895186   -0.637399   -0.326499
     13          1           0        1.863603   -0.326433   -1.379815
     14          1           0        2.028780   -1.726672   -0.336810
     15          6           0        3.128829   -0.001867    0.342675
     16          1           0        3.106971   -0.275196    1.406918
     17          6           0        4.420981   -0.571647   -0.259726
     18          1           0        4.490822   -0.335379   -1.327365
     19          1           0        5.305767   -0.154110    0.230096
     20          1           0        4.463334   -1.660074   -0.156807
     21          6           0       -2.412997    0.379543    0.942094
     22          1           0       -3.144171    0.173012    1.732600
     23          1           0       -1.582783    0.948127    1.367938
     24          6           0        3.124264    1.531010    0.248896
     25          1           0        4.012025    1.954391    0.728116
     26          1           0        3.126702    1.854401   -0.798321
     27          1           0        2.248867    1.971838    0.732014
     28          8           0       -3.188767    1.264731    0.087085
     29          8           0       -2.292176    1.747552   -0.961108
     30          1           0       -2.394853    2.701798   -0.842748
 ---------------------------------------------------------------------
 Rotational constants (GHZ):      1.8315086      0.4150686      0.3640661
 Leave Link  202 at Fri Feb  7 19:15:11 2014, MaxMem= 4026531840 cpu:       0.4
 (Enter /usr/caen/gaussian-09revc/g09/l301.exe)
 Standard basis: 6-311++G(d,p) (5D, 7F)
 Ernie: Thresh=  0.10000D-02 Tol=  0.10000D-05 Strict=F.
 There are   375 symmetry adapted basis functions of A   symmetry.
 Integral buffers will be    131072 words long.
 Raffenetti 2 integral format.
 Two-electron integral symmetry is turned on.
   375 basis functions,   567 primitive gaussians,   386 cartesian basis functions
    45 alpha electrons       44 beta electrons
       nuclear repulsion energy       641.9108186901 Hartrees.
 IExCor=  402 DFT=T Ex+Corr=B3LYP ExCW=0 ScaHFX=  0.200000
 ScaDFX=  0.800000  0.720000  1.000000  0.810000 ScalE2=  1.000000  1.000000
 IRadAn=      0 IRanWt=     -1 IRanGd=            0 ICorTp=0
 NAtoms=   30 NActive=   30 NUniq=   30 SFac= 1.00D+00 NAtFMM=   60 NAOKFM=F Big=F
 Leave Link  301 at Fri Feb  7 19:15:11 2014, MaxMem= 4026531840 cpu:       0.7
 (Enter /usr/caen/gaussian-09revc/g09/l302.exe)
 NPDir=0 NMtPBC=     1 NCelOv=     1 NCel=       1 NClECP=     1 NCelD=      1
         NCelK=      1 NCelE2=     1 NClLst=     1 CellRange=     0.0.
 One-electron integrals computed using PRISM.
 NBasis=   375 RedAO= T  NBF=   375
 NBsUse=   375 1.00D-06 NBFU=   375
 Precomputing XC quadrature grid using
 IXCGrd= 2 IRadAn=           0 IRanWt=          -1 IRanGd=           0 AccXCQ= 0.00D+00.
 NRdTot=    1959 NPtTot=      249830 NUsed=      263946 NTot=      263978
 NSgBfM=   386   386   386   386   386 NAtAll=    30    30.
 Leave Link  302 at Fri Feb  7 19:15:12 2014, MaxMem= 4026531840 cpu:       6.0
 (Enter /usr/caen/gaussian-09revc/g09/l303.exe)
 DipDrv:  MaxL=1.
 Leave Link  303 at Fri Feb  7 19:15:14 2014, MaxMem= 4026531840 cpu:       6.4
 (Enter /usr/caen/gaussian-09revc/g09/l401.exe)
 Harris functional with IExCor=  402 diagonalized for initial guess.
 ExpMin= 3.60D-02 ExpMax= 8.59D+03 ExpMxC= 1.30D+03 IAcc=3 IRadAn=         5 AccDes= 0.00D+00
 HarFok:  IExCor=  402 AccDes= 0.00D+00 IRadAn=         5 IDoV= 1
 ScaDFX=  1.000000  1.000000  1.000000  1.000000
 FoFCou: FMM=F IPFlag=           0 FMFlag=      100000 FMFlg1=           0
         NFxFlg=           0 DoJE=T BraDBF=F KetDBF=T FulRan=T
         Omega=  0.000000  0.000000  1.000000  0.000000  0.000000 ICntrl=     500 IOpCl=  0
         NMat0=    1 NMatS0=    1 NMatT0=    0 NMatD0=    1 NMtDS0=    0 NMtDT0=    0
         I1Cent=           4 NGrid=           0.
 Petite list used in FoFCou.
 Harris En= -504.917672640688    
 Mixing orbitals, IMix= 1 IMixAn=  0 NRI=1 NE=   45 Coef=  7.07106781D-01  7.07106781D-01
 Mixing orbitals, IMix= 1 IMixAn=  0 NRI=1 NE=   44 Coef= -7.07106781D-01  7.07106781D-01
 Initial guess orbital symmetries:
 Alpha Orbitals:
       Occupied  (A) (A) (A) (A) (A) (A) (A) (A) (A) (A) (A) (A)
                 (A) (A) (A) (A) (A) (A) (A) (A) (A) (A) (A) (A)
                 (A) (A) (A) (A) (A) (A) (A) (A) (A) (A) (A) (A)
                 (A) (A) (A) (A) (A) (A) (A) (A) (A)
       Virtual   (A) (A) (A) (A) (A) (A) (A) (A) (A) (A) (A) (A)
                 (A) (A) (A) (A) (A) (A) (A) (A) (A) (A) (A) (A)
                 (A) (A) (A) (A) (A) (A) (A) (A) (A) (A) (A) (A)
                 (A) (A) (A) (A) (A) (A) (A) (A) (A) (A) (A) (A)
                 (A) (A) (A) (A) (A) (A) (A) (A) (A) (A) (A) (A)
                 (A) (A) (A) (A) (A) (A) (A) (A) (A) (A) (A) (A)
                 (A) (A) (A) (A) (A) (A) (A) (A) (A) (A) (A) (A)
                 (A) (A) (A) (A) (A) (A) (A) (A) (A) (A) (A) (A)
                 (A) (A) (A) (A) (A) (A) (A) (A) (A) (A) (A) (A)
                 (A) (A) (A) (A) (A) (A) (A) (A) (A) (A) (A) (A)
                 (A) (A) (A) (A) (A) (A) (A) (A) (A) (A) (A) (A)
                 (A) (A) (A) (A) (A) (A) (A) (A) (A) (A) (A) (A)
                 (A) (A) (A) (A) (A) (A) (A) (A) (A) (A) (A) (A)
                 (A) (A) (A) (A) (A) (A) (A) (A) (A) (A) (A) (A)
                 (A) (A) (A) (A) (A) (A) (A) (A) (A) (A) (A) (A)
                 (A) (A) (A) (A) (A) (A) (A) (A) (A) (A) (A) (A)
                 (A) (A) (A) (A) (A) (A) (A) (A) (A) (A) (A) (A)
                 (A) (A) (A) (A) (A) (A) (A) (A) (A) (A) (A) (A)
                 (A) (A) (A) (A) (A) (A) (A) (A) (A) (A) (A) (A)
                 (A) (A) (A) (A) (A) (A) (A) (A) (A) (A) (A) (A)
                 (A) (A) (A) (A) (A) (A) (A) (A) (A) (A) (A) (A)
                 (A) (A) (A) (A) (A) (A) (A) (A) (A) (A) (A) (A)
                 (A) (A) (A) (A) (A) (A) (A) (A) (A) (A) (A) (A)
                 (A) (A) (A) (A) (A) (A) (A) (A) (A) (A) (A) (A)
                 (A) (A) (A) (A) (A) (A) (A) (A) (A) (A) (A) (A)
                 (A) (A) (A) (A) (A) (A) (A) (A) (A) (A) (A) (A)
                 (A) (A) (A) (A) (A) (A) (A) (A) (A) (A) (A) (A)
                 (A) (A) (A) (A) (A) (A)
 Beta  Orbitals:
       Occupied  (A) (A) (A) (A) (A) (A) (A) (A) (A) (A) (A) (A)
                 (A) (A) (A) (A) (A) (A) (A) (A) (A) (A) (A) (A)
                 (A) (A) (A) (A) (A) (A) (A) (A) (A) (A) (A) (A)
                 (A) (A) (A) (A) (A) (A) (A) (A)
       Virtual   (A) (A) (A) (A) (A) (A) (A) (A) (A) (A) (A) (A)
                 (A) (A) (A) (A) (A) (A) (A) (A) (A) (A) (A) (A)
                 (A) (A) (A) (A) (A) (A) (A) (A) (A) (A) (A) (A)
                 (A) (A) (A) (A) (A) (A) (A) (A) (A) (A) (A) (A)
                 (A) (A) (A) (A) (A) (A) (A) (A) (A) (A) (A) (A)
                 (A) (A) (A) (A) (A) (A) (A) (A) (A) (A) (A) (A)
                 (A) (A) (A) (A) (A) (A) (A) (A) (A) (A) (A) (A)
                 (A) (A) (A) (A) (A) (A) (A) (A) (A) (A) (A) (A)
                 (A) (A) (A) (A) (A) (A) (A) (A) (A) (A) (A) (A)
                 (A) (A) (A) (A) (A) (A) (A) (A) (A) (A) (A) (A)
                 (A) (A) (A) (A) (A) (A) (A) (A) (A) (A) (A) (A)
                 (A) (A) (A) (A) (A) (A) (A) (A) (A) (A) (A) (A)
                 (A) (A) (A) (A) (A) (A) (A) (A) (A) (A) (A) (A)
                 (A) (A) (A) (A) (A) (A) (A) (A) (A) (A) (A) (A)
                 (A) (A) (A) (A) (A) (A) (A) (A) (A) (A) (A) (A)
                 (A) (A) (A) (A) (A) (A) (A) (A) (A) (A) (A) (A)
                 (A) (A) (A) (A) (A) (A) (A) (A) (A) (A) (A) (A)
                 (A) (A) (A) (A) (A) (A) (A) (A) (A) (A) (A) (A)
                 (A) (A) (A) (A) (A) (A) (A) (A) (A) (A) (A) (A)
                 (A) (A) (A) (A) (A) (A) (A) (A) (A) (A) (A) (A)
                 (A) (A) (A) (A) (A) (A) (A) (A) (A) (A) (A) (A)
                 (A) (A) (A) (A) (A) (A) (A) (A) (A) (A) (A) (A)
                 (A) (A) (A) (A) (A) (A) (A) (A) (A) (A) (A) (A)
                 (A) (A) (A) (A) (A) (A) (A) (A) (A) (A) (A) (A)
                 (A) (A) (A) (A) (A) (A) (A) (A) (A) (A) (A) (A)
                 (A) (A) (A) (A) (A) (A) (A) (A) (A) (A) (A) (A)
                 (A) (A) (A) (A) (A) (A) (A) (A) (A) (A) (A) (A)
                 (A) (A) (A) (A) (A) (A) (A)
 The electronic state of the initial guess is 2-A.
 Initial guess <Sx>= 0.0000 <Sy>= 0.0000 <Sz>= 0.5000 <S**2>= 1.0000 S= 0.6180
 Leave Link  401 at Fri Feb  7 19:15:19 2014, MaxMem= 4026531840 cpu:      37.9
 (Enter /usr/caen/gaussian-09revc/g09/l502.exe)
 UHF open shell SCF:
 Requested convergence on RMS density matrix=1.00D-08 within 128 cycles.
 Requested convergence on MAX density matrix=1.00D-06.
 Requested convergence on             energy=1.00D-06.
 No special actions if energy rises.
 Using DIIS extrapolation, IDIIS=  1040.
 Integral symmetry usage will be decided dynamically.
       263663 words used for storage of precomputed grid.
 IEnd=      734797 IEndB=      734797 NGot=  4026531840 MDV=  4025963066
 LenX=  4025963066 LenY=  4025813629
 Fock matrices will be formed incrementally for  20 cycles.

 Cycle   1  Pass 1  IDiag  1:
 FoFCou: FMM=F IPFlag=           0 FMFlag=      100000 FMFlg1=           0
         NFxFlg=           0 DoJE=F BraDBF=F KetDBF=F FulRan=T
         Omega=  0.000000  0.000000  1.000000  0.000000  0.000000 ICntrl=       0 IOpCl=  1
         NMat0=    1 NMatS0=    1 NMatT0=    0 NMatD0=    1 NMtDS0=    0 NMtDT0=    0
         I1Cent=           0 NGrid=           0.
 Symmetry not used in FoFCou.
 E= -504.335651558306    
 DIIS: error= 3.76D-02 at cycle   1 NSaved=   1.
 NSaved= 1 IEnMin= 1 EnMin= -504.335651558306     IErMin= 1 ErrMin= 3.76D-02
 ErrMax= 3.76D-02 EMaxC= 1.00D-01 BMatC= 1.61D+00 BMatP= 1.61D+00
 IDIUse=3 WtCom= 6.24D-01 WtEn= 3.76D-01
 Coeff-Com:  0.100D+01
 Coeff-En:   0.100D+01
 Coeff:      0.100D+01
 Gap=     0.007 Goal=   None    Shift=    0.000
 Gap=     0.024 Goal=   None    Shift=    0.000
 GapD=    0.007 DampG=0.250 DampE=0.500 DampFc=0.2500 IDamp=-1.
 Damping current iteration by 2.50D-01
 RMSDP=3.49D-02 MaxDP=5.65D+00              OVMax= 5.29D-01

 Cycle   2  Pass 1  IDiag  1:
 RMSU=  7.08D-03    CP:  1.02D+00
 E= -504.485893093804     Delta-E=       -0.150241535498 Rises=F Damp=T
 DIIS: error= 1.60D-02 at cycle   2 NSaved=   2.
 NSaved= 2 IEnMin= 2 EnMin= -504.485893093804     IErMin= 2 ErrMin= 1.60D-02
 ErrMax= 1.60D-02 EMaxC= 1.00D-01 BMatC= 3.83D-01 BMatP= 1.61D+00
 IDIUse=3 WtCom= 8.40D-01 WtEn= 1.60D-01
 Coeff-Com: -0.638D+00 0.164D+01
 Coeff-En:   0.000D+00 0.100D+01
 Coeff:     -0.535D+00 0.154D+01
 Gap=    -0.024 Goal=   None    Shift=    0.000
 Gap=     0.188 Goal=   None    Shift=    0.000
 RMSDP=1.22D-02 MaxDP=1.68D+00 DE=-1.50D-01 OVMax= 7.76D-01

 Cycle   3  Pass 1  IDiag  1:
 RMSU=  8.28D-03    CP:  9.10D-01  4.51D-01
 E= -504.720432527299     Delta-E=       -0.234539433495 Rises=F Damp=F
 DIIS: error= 2.12D-02 at cycle   3 NSaved=   3.
 NSaved= 3 IEnMin= 3 EnMin= -504.720432527299     IErMin= 2 ErrMin= 1.60D-02
 ErrMax= 2.12D-02 EMaxC= 1.00D-01 BMatC= 4.83D-01 BMatP= 3.83D-01
 IDIUse=2 WtCom= 0.00D+00 WtEn= 1.00D+00
 Coeff-En:   0.000D+00 0.000D+00 0.100D+01
 Coeff:      0.000D+00 0.000D+00 0.100D+01
 Gap=     0.040 Goal=   None    Shift=    0.000
 Gap=     0.228 Goal=   None    Shift=    0.000
 RMSDP=1.11D-02 MaxDP=8.46D-01 DE=-2.35D-01 OVMax= 9.85D-01

 Cycle   4  Pass 1  IDiag  1:
 RMSU=  6.62D-03    CP:  8.44D-01  8.26D-01  4.75D-01
 E= -503.895736880305     Delta-E=        0.824695646994 Rises=F Damp=F
 DIIS: error= 6.21D-02 at cycle   4 NSaved=   4.
 NSaved= 4 IEnMin= 3 EnMin= -504.720432527299     IErMin= 2 ErrMin= 1.60D-02
 ErrMax= 6.21D-02 EMaxC= 1.00D-01 BMatC= 3.54D+00 BMatP= 3.83D-01
 IDIUse=2 WtCom= 0.00D+00 WtEn= 1.00D+00
 Coeff-En:   0.000D+00 0.000D+00 0.841D+00 0.159D+00
 Coeff:      0.000D+00 0.000D+00 0.841D+00 0.159D+00
 Gap=    -0.063 Goal=   None    Shift=    0.000
 Gap=     0.285 Goal=   None    Shift=    0.000
 RMSDP=6.08D-03 MaxDP=3.01D-01 DE= 8.25D-01 OVMax= 9.66D-01

 Cycle   5  Pass 1  IDiag  1:
 RMSU=  4.00D-03    CP:  8.65D-01  7.31D-01  7.37D-01  6.49D-01
 E= -504.794400264486     Delta-E=       -0.898663384181 Rises=F Damp=F
 DIIS: error= 1.94D-02 at cycle   5 NSaved=   5.
 NSaved= 5 IEnMin= 5 EnMin= -504.794400264486     IErMin= 2 ErrMin= 1.60D-02
 ErrMax= 1.94D-02 EMaxC= 1.00D-01 BMatC= 3.08D-01 BMatP= 3.83D-01
 IDIUse=3 WtCom= 8.06D-01 WtEn= 1.94D-01
 Coeff-Com: -0.153D+00 0.386D+00 0.416D+00 0.352D-01 0.316D+00
 Coeff-En:   0.000D+00 0.000D+00 0.321D+00 0.000D+00 0.679D+00
 Coeff:     -0.124D+00 0.311D+00 0.398D+00 0.284D-01 0.386D+00
 Gap=     0.143 Goal=   None    Shift=    0.000
 Gap=     0.183 Goal=   None    Shift=    0.000
 RMSDP=4.02D-03 MaxDP=4.64D-01 DE=-8.99D-01 OVMax= 1.06D-01

 Cycle   6  Pass 1  IDiag  1:
 RMSU=  1.35D-03    CP:  8.89D-01  6.79D-01  9.12D-01  4.57D-01  6.04D-01
 E= -504.849722244186     Delta-E=       -0.055321979700 Rises=F Damp=F
 DIIS: error= 5.28D-03 at cycle   6 NSaved=   6.
 NSaved= 6 IEnMin= 6 EnMin= -504.849722244186     IErMin= 6 ErrMin= 5.28D-03
 ErrMax= 5.28D-03 EMaxC= 1.00D-01 BMatC= 3.09D-02 BMatP= 3.08D-01
 IDIUse=3 WtCom= 9.47D-01 WtEn= 5.28D-02
 Coeff-Com: -0.776D-01 0.145D+00 0.121D+00-0.237D-01 0.275D+00 0.560D+00
 Coeff-En:   0.000D+00 0.000D+00 0.000D+00 0.000D+00 0.166D-01 0.983D+00
 Coeff:     -0.735D-01 0.137D+00 0.115D+00-0.225D-01 0.261D+00 0.583D+00
 Gap=     0.171 Goal=   None    Shift=    0.000
 Gap=     0.191 Goal=   None    Shift=    0.000
 RMSDP=1.63D-03 MaxDP=1.86D-01 DE=-5.53D-02 OVMax= 4.82D-02

 Cycle   7  Pass 1  IDiag  1:
 RMSU=  7.61D-04    CP:  8.83D-01  7.39D-01  8.92D-01  5.42D-01  7.00D-01
                    CP:  7.22D-01
 E= -504.855596286318     Delta-E=       -0.005874042131 Rises=F Damp=F
 DIIS: error= 1.78D-03 at cycle   7 NSaved=   7.
 NSaved= 7 IEnMin= 7 EnMin= -504.855596286318     IErMin= 7 ErrMin= 1.78D-03
 ErrMax= 1.78D-03 EMaxC= 1.00D-01 BMatC= 3.45D-03 BMatP= 3.09D-02
 IDIUse=3 WtCom= 9.82D-01 WtEn= 1.78D-02
 Coeff-Com: -0.121D-01 0.207D-01-0.146D-01 0.125D-02-0.545D-01 0.177D+00
 Coeff-Com:  0.882D+00
 Coeff-En:   0.000D+00 0.000D+00 0.000D+00 0.000D+00 0.000D+00 0.000D+00
 Coeff-En:   0.100D+01
 Coeff:     -0.119D-01 0.203D-01-0.144D-01 0.123D-02-0.535D-01 0.174D+00
 Coeff:      0.884D+00
 Gap=     0.174 Goal=   None    Shift=    0.000
 Gap=     0.197 Goal=   None    Shift=    0.000
 RMSDP=5.34D-04 MaxDP=5.04D-02 DE=-5.87D-03 OVMax= 2.23D-02

 Cycle   8  Pass 1  IDiag  1:
 RMSU=  2.78D-04    CP:  8.81D-01  7.33D-01  9.09D-01  5.28D-01  6.58D-01
                    CP:  7.73D-01  1.23D+00
 E= -504.856419892278     Delta-E=       -0.000823605961 Rises=F Damp=F
 DIIS: error= 5.75D-04 at cycle   8 NSaved=   8.
 NSaved= 8 IEnMin= 8 EnMin= -504.856419892278     IErMin= 8 ErrMin= 5.75D-04
 ErrMax= 5.75D-04 EMaxC= 1.00D-01 BMatC= 6.07D-04 BMatP= 3.45D-03
 IDIUse=3 WtCom= 9.94D-01 WtEn= 5.75D-03
 Coeff-Com:  0.422D-02-0.784D-02-0.166D-01 0.797D-02-0.562D-01 0.144D-01
 Coeff-Com:  0.425D+00 0.629D+00
 Coeff-En:   0.000D+00 0.000D+00 0.000D+00 0.000D+00 0.000D+00 0.000D+00
 Coeff-En:   0.000D+00 0.100D+01
 Coeff:      0.419D-02-0.780D-02-0.165D-01 0.792D-02-0.559D-01 0.143D-01
 Coeff:      0.423D+00 0.631D+00
 Gap=     0.177 Goal=   None    Shift=    0.000
 Gap=     0.199 Goal=   None    Shift=    0.000
 RMSDP=2.51D-04 MaxDP=4.75D-02 DE=-8.24D-04 OVMax= 7.91D-03

 Cycle   9  Pass 1  IDiag  1:
 RMSU=  1.14D-04    CP:  8.77D-01  7.26D-01  8.99D-01  5.28D-01  6.51D-01
                    CP:  7.82D-01  1.27D+00  1.02D+00
 E= -504.856562032333     Delta-E=       -0.000142140055 Rises=F Damp=F
 DIIS: error= 2.45D-04 at cycle   9 NSaved=   9.
 NSaved= 9 IEnMin= 9 EnMin= -504.856562032333     IErMin= 9 ErrMin= 2.45D-04
 ErrMax= 2.45D-04 EMaxC= 1.00D-01 BMatC= 1.06D-04 BMatP= 6.07D-04
 IDIUse=3 WtCom= 9.98D-01 WtEn= 2.45D-03
 Coeff-Com:  0.214D-02-0.413D-02-0.583D-02 0.173D-02 0.648D-02-0.105D-01
 Coeff-Com: -0.599D-01 0.164D+00 0.907D+00
 Coeff-En:   0.000D+00 0.000D+00 0.000D+00 0.000D+00 0.000D+00 0.000D+00
 Coeff-En:   0.000D+00 0.000D+00 0.100D+01
 Coeff:      0.214D-02-0.412D-02-0.582D-02 0.172D-02 0.646D-02-0.105D-01
 Coeff:     -0.598D-01 0.163D+00 0.907D+00
 Gap=     0.176 Goal=   None    Shift=    0.000
 Gap=     0.202 Goal=   None    Shift=    0.000
 RMSDP=2.10D-04 MaxDP=3.94D-02 DE=-1.42D-04 OVMax= 4.03D-03

 Cycle  10  Pass 1  IDiag  1:
 RMSU=  7.43D-05    CP:  8.79D-01  7.36D-01  8.98D-01  5.40D-01  6.70D-01
                    CP:  7.86D-01  1.29D+00  1.01D+00  8.95D-01
 E= -504.856597122061     Delta-E=       -0.000035089728 Rises=F Damp=F
 DIIS: error= 4.69D-05 at cycle  10 NSaved=  10.
 NSaved=10 IEnMin=10 EnMin= -504.856597122061     IErMin=10 ErrMin= 4.69D-05
 ErrMax= 4.69D-05 EMaxC= 1.00D-01 BMatC= 5.42D-06 BMatP= 1.06D-04
 IDIUse=1 WtCom= 1.00D+00 WtEn= 0.00D+00
 Coeff-Com: -0.903D-03 0.169D-02 0.496D-03-0.169D-03 0.704D-02-0.446D-02
 Coeff-Com: -0.465D-01-0.669D-02 0.168D+00 0.882D+00
 Coeff:     -0.903D-03 0.169D-02 0.496D-03-0.169D-03 0.704D-02-0.446D-02
 Coeff:     -0.465D-01-0.669D-02 0.168D+00 0.882D+00
 Gap=     0.176 Goal=   None    Shift=    0.000
 Gap=     0.201 Goal=   None    Shift=    0.000
 RMSDP=5.17D-05 MaxDP=1.16D-02 DE=-3.51D-05 OVMax= 7.01D-04

 Cycle  11  Pass 1  IDiag  1:
 RMSU=  1.30D-05    CP:  8.79D-01  7.34D-01  8.96D-01  5.38D-01  6.69D-01
                    CP:  7.85D-01  1.28D+00  1.03D+00  9.79D-01  8.85D-01
 E= -504.856598632857     Delta-E=       -0.000001510796 Rises=F Damp=F
 DIIS: error= 3.84D-05 at cycle  11 NSaved=  11.
 NSaved=11 IEnMin=11 EnMin= -504.856598632857     IErMin=11 ErrMin= 3.84D-05
 ErrMax= 3.84D-05 EMaxC= 1.00D-01 BMatC= 2.10D-06 BMatP= 5.42D-06
 IDIUse=1 WtCom= 1.00D+00 WtEn= 0.00D+00
 Coeff-Com: -0.545D-03 0.106D-02 0.897D-03-0.185D-03 0.180D-02-0.219D-02
 Coeff-Com: -0.138D-01-0.144D-01-0.322D-01 0.444D+00 0.616D+00
 Coeff:     -0.545D-03 0.106D-02 0.897D-03-0.185D-03 0.180D-02-0.219D-02
 Coeff:     -0.138D-01-0.144D-01-0.322D-01 0.444D+00 0.616D+00
 Gap=     0.176 Goal=   None    Shift=    0.000
 Gap=     0.201 Goal=   None    Shift=    0.000
 RMSDP=1.10D-05 MaxDP=2.39D-03 DE=-1.51D-06 OVMax= 2.05D-04

 Cycle  12  Pass 1  IDiag  1:
 RMSU=  4.14D-06    CP:  8.79D-01  7.34D-01  8.96D-01  5.38D-01  6.70D-01
                    CP:  7.85D-01  1.28D+00  1.03D+00  9.55D-01  9.22D-01
                    CP:  1.04D+00
 E= -504.856599221769     Delta-E=       -0.000000588912 Rises=F Damp=F
 DIIS: error= 1.12D-05 at cycle  12 NSaved=  12.
 NSaved=12 IEnMin=12 EnMin= -504.856599221769     IErMin=12 ErrMin= 1.12D-05
 ErrMax= 1.12D-05 EMaxC= 1.00D-01 BMatC= 1.92D-07 BMatP= 2.10D-06
 IDIUse=1 WtCom= 1.00D+00 WtEn= 0.00D+00
 Coeff-Com:  0.456D-04-0.480D-04 0.129D-03-0.366D-04-0.822D-03-0.550D-03
 Coeff-Com:  0.168D-02-0.141D-02-0.294D-01-0.329D-03 0.177D+00 0.854D+00
 Coeff:      0.456D-04-0.480D-04 0.129D-03-0.366D-04-0.822D-03-0.550D-03
 Coeff:      0.168D-02-0.141D-02-0.294D-01-0.329D-03 0.177D+00 0.854D+00
 Gap=     0.176 Goal=   None    Shift=    0.000
 Gap=     0.201 Goal=   None    Shift=    0.000
 RMSDP=7.56D-06 MaxDP=1.61D-03 DE=-5.89D-07 OVMax= 1.43D-04

 Cycle  13  Pass 1  IDiag  1:
 RMSU=  1.99D-06    CP:  8.79D-01  7.35D-01  8.96D-01  5.38D-01  6.70D-01
                    CP:  7.86D-01  1.28D+00  1.03D+00  9.45D-01  9.46D-01
                    CP:  1.09D+00  1.14D+00
 E= -504.856599306058     Delta-E=       -0.000000084289 Rises=F Damp=F
 DIIS: error= 3.12D-06 at cycle  13 NSaved=  13.
 NSaved=13 IEnMin=13 EnMin= -504.856599306058     IErMin=13 ErrMin= 3.12D-06
 ErrMax= 3.12D-06 EMaxC= 1.00D-01 BMatC= 2.01D-08 BMatP= 1.92D-07
 IDIUse=1 WtCom= 1.00D+00 WtEn= 0.00D+00
 Coeff-Com:  0.699D-04-0.121D-03-0.708D-04-0.103D-04-0.188D-03 0.353D-03
 Coeff-Com:  0.133D-02-0.971D-05 0.261D-02-0.575D-01-0.543D-01 0.133D+00
 Coeff-Com:  0.975D+00
 Coeff:      0.699D-04-0.121D-03-0.708D-04-0.103D-04-0.188D-03 0.353D-03
 Coeff:      0.133D-02-0.971D-05 0.261D-02-0.575D-01-0.543D-01 0.133D+00
 Coeff:      0.975D+00
 Gap=     0.176 Goal=   None    Shift=    0.000
 Gap=     0.201 Goal=   None    Shift=    0.000
 RMSDP=2.81D-06 MaxDP=4.40D-04 DE=-8.43D-08 OVMax= 7.24D-05

 Cycle  14  Pass 1  IDiag  1:
 RMSU=  6.82D-07    CP:  8.79D-01  7.35D-01  8.96D-01  5.38D-01  6.70D-01
                    CP:  7.86D-01  1.28D+00  1.03D+00  9.46D-01  9.38D-01
                    CP:  1.15D+00  1.30D+00  1.17D+00
 E= -504.856599322141     Delta-E=       -0.000000016083 Rises=F Damp=F
 DIIS: error= 1.43D-06 at cycle  14 NSaved=  14.
 NSaved=14 IEnMin=14 EnMin= -504.856599322141     IErMin=14 ErrMin= 1.43D-06
 ErrMax= 1.43D-06 EMaxC= 1.00D-01 BMatC= 6.45D-09 BMatP= 2.01D-08
 IDIUse=1 WtCom= 1.00D+00 WtEn= 0.00D+00
 Coeff-Com:  0.259D-04-0.479D-04-0.556D-04-0.313D-05 0.907D-04 0.249D-03
 Coeff-Com:  0.274D-03 0.233D-03 0.720D-02-0.242D-01-0.547D-01-0.102D+00
 Coeff-Com:  0.385D+00 0.787D+00
 Coeff:      0.259D-04-0.479D-04-0.556D-04-0.313D-05 0.907D-04 0.249D-03
 Coeff:      0.274D-03 0.233D-03 0.720D-02-0.242D-01-0.547D-01-0.102D+00
 Coeff:      0.385D+00 0.787D+00
 Gap=     0.176 Goal=   None    Shift=    0.000
 Gap=     0.201 Goal=   None    Shift=    0.000
 RMSDP=9.80D-07 MaxDP=1.29D-04 DE=-1.61D-08 OVMax= 3.47D-05

 Cycle  15  Pass 1  IDiag  1:
 RMSU=  2.98D-07    CP:  8.79D-01  7.35D-01  8.96D-01  5.38D-01  6.70D-01
                    CP:  7.86D-01  1.28D+00  1.03D+00  9.46D-01  9.36D-01
                    CP:  1.17D+00  1.36D+00  1.28D+00  1.22D+00
 E= -504.856599326254     Delta-E=       -0.000000004113 Rises=F Damp=F
 DIIS: error= 1.04D-06 at cycle  15 NSaved=  15.
 NSaved=15 IEnMin=15 EnMin= -504.856599326254     IErMin=15 ErrMin= 1.04D-06
 ErrMax= 1.04D-06 EMaxC= 1.00D-01 BMatC= 1.19D-09 BMatP= 6.45D-09
 IDIUse=1 WtCom= 1.00D+00 WtEn= 0.00D+00
 Coeff-Com: -0.643D-05 0.108D-04 0.252D-06-0.380D-05 0.593D-04-0.631D-04
 Coeff-Com: -0.145D-03 0.259D-03 0.739D-03 0.868D-02 0.129D-02-0.567D-01
 Coeff-Com: -0.175D+00 0.194D+00 0.103D+01
 Coeff:     -0.643D-05 0.108D-04 0.252D-06-0.380D-05 0.593D-04-0.631D-04
 Coeff:     -0.145D-03 0.259D-03 0.739D-03 0.868D-02 0.129D-02-0.567D-01
 Coeff:     -0.175D+00 0.194D+00 0.103D+01
 Gap=     0.176 Goal=   None    Shift=    0.000
 Gap=     0.201 Goal=   None    Shift=    0.000
 RMSDP=5.32D-07 MaxDP=7.50D-05 DE=-4.11D-09 OVMax= 2.16D-05

 Cycle  16  Pass 1  IDiag  1:
 RMSU=  1.21D-07    CP:  8.79D-01  7.35D-01  8.96D-01  5.38D-01  6.70D-01
                    CP:  7.86D-01  1.28D+00  1.03D+00  9.45D-01  9.36D-01
                    CP:  1.18D+00  1.39D+00  1.37D+00  1.41D+00  1.29D+00
 E= -504.856599327223     Delta-E=       -0.000000000969 Rises=F Damp=F
 DIIS: error= 2.71D-07 at cycle  16 NSaved=  16.
 NSaved=16 IEnMin=16 EnMin= -504.856599327223     IErMin=16 ErrMin= 2.71D-07
 ErrMax= 2.71D-07 EMaxC= 1.00D-01 BMatC= 1.69D-10 BMatP= 1.19D-09
 IDIUse=1 WtCom= 1.00D+00 WtEn= 0.00D+00
 Coeff-Com: -0.448D-05 0.837D-05 0.527D-05-0.142D-05 0.780D-05-0.603D-04
 Coeff-Com: -0.860D-04 0.127D-03-0.482D-03 0.609D-02 0.638D-02-0.916D-02
 Coeff-Com: -0.107D+00-0.293D-01 0.362D+00 0.772D+00
 Coeff:     -0.448D-05 0.837D-05 0.527D-05-0.142D-05 0.780D-05-0.603D-04
 Coeff:     -0.860D-04 0.127D-03-0.482D-03 0.609D-02 0.638D-02-0.916D-02
 Coeff:     -0.107D+00-0.293D-01 0.362D+00 0.772D+00
 Gap=     0.176 Goal=   None    Shift=    0.000
 Gap=     0.201 Goal=   None    Shift=    0.000
 RMSDP=1.72D-07 MaxDP=2.67D-05 DE=-9.69D-10 OVMax= 4.58D-06

 Cycle  17  Pass 1  IDiag  1:
 RMSU=  6.37D-08    CP:  8.79D-01  7.35D-01  8.96D-01  5.38D-01  6.70D-01
                    CP:  7.86D-01  1.28D+00  1.03D+00  9.45D-01  9.36D-01
                    CP:  1.18D+00  1.39D+00  1.38D+00  1.50D+00  1.28D+00
                    CP:  1.05D+00
 E= -504.856599327317     Delta-E=       -0.000000000095 Rises=F Damp=F
 DIIS: error= 1.09D-07 at cycle  17 NSaved=  17.
 NSaved=17 IEnMin=17 EnMin= -504.856599327317     IErMin=17 ErrMin= 1.09D-07
 ErrMax= 1.09D-07 EMaxC= 1.00D-01 BMatC= 1.99D-11 BMatP= 1.69D-10
 IDIUse=1 WtCom= 1.00D+00 WtEn= 0.00D+00
 Coeff-Com:  0.402D-06-0.521D-06 0.151D-05-0.636D-07-0.513D-05-0.646D-05
 Coeff-Com: -0.155D-04-0.934D-05-0.213D-03 0.582D-03 0.148D-02 0.495D-02
 Coeff-Com: -0.354D-02-0.371D-01-0.488D-01 0.214D+00 0.869D+00
 Coeff:      0.402D-06-0.521D-06 0.151D-05-0.636D-07-0.513D-05-0.646D-05
 Coeff:     -0.155D-04-0.934D-05-0.213D-03 0.582D-03 0.148D-02 0.495D-02
 Coeff:     -0.354D-02-0.371D-01-0.488D-01 0.214D+00 0.869D+00
 Gap=     0.176 Goal=   None    Shift=    0.000
 Gap=     0.201 Goal=   None    Shift=    0.000
 RMSDP=5.27D-08 MaxDP=5.50D-06 DE=-9.46D-11 OVMax= 1.20D-06

 Cycle  18  Pass 1  IDiag  1:
 RMSU=  1.96D-08    CP:  8.79D-01  7.35D-01  8.96D-01  5.38D-01  6.70D-01
                    CP:  7.86D-01  1.28D+00  1.03D+00  9.45D-01  9.36D-01
                    CP:  1.18D+00  1.39D+00  1.38D+00  1.51D+00  1.32D+00
                    CP:  1.10D+00  7.67D-01
 E= -504.856599327323     Delta-E=       -0.000000000006 Rises=F Damp=F
 DIIS: error= 4.51D-08 at cycle  18 NSaved=  18.
 NSaved=18 IEnMin=18 EnMin= -504.856599327323     IErMin=18 ErrMin= 4.51D-08
 ErrMax= 4.51D-08 EMaxC= 1.00D-01 BMatC= 4.08D-12 BMatP= 1.99D-11
 IDIUse=1 WtCom= 1.00D+00 WtEn= 0.00D+00
 Coeff-Com:  0.415D-06-0.600D-06 0.101D-06 0.292D-07-0.210D-05 0.526D-05
 Coeff-Com: -0.611D-06-0.296D-04-0.401D-05-0.507D-03-0.224D-03 0.289D-02
 Coeff-Com:  0.127D-01-0.104D-01-0.668D-01-0.205D-01 0.350D+00 0.733D+00
 Coeff:      0.415D-06-0.600D-06 0.101D-06 0.292D-07-0.210D-05 0.526D-05
 Coeff:     -0.611D-06-0.296D-04-0.401D-05-0.507D-03-0.224D-03 0.289D-02
 Coeff:      0.127D-01-0.104D-01-0.668D-01-0.205D-01 0.350D+00 0.733D+00
 Gap=     0.176 Goal=   None    Shift=    0.000
 Gap=     0.201 Goal=   None    Shift=    0.000
 RMSDP=1.86D-08 MaxDP=2.09D-06 DE=-5.91D-12 OVMax= 3.26D-07

 Cycle  19  Pass 1  IDiag  1:
 RMSU=  8.91D-09    CP:  8.79D-01  7.35D-01  8.96D-01  5.38D-01  6.70D-01
                    CP:  7.86D-01  1.28D+00  1.03D+00  9.45D-01  9.36D-01
                    CP:  1.18D+00  1.39D+00  1.38D+00  1.51D+00  1.32D+00
                    CP:  1.11D+00  8.29D-01  7.99D-01
 E= -504.856599327326     Delta-E=       -0.000000000003 Rises=F Damp=F
 DIIS: error= 1.78D-08 at cycle  19 NSaved=  19.
 NSaved=19 IEnMin=19 EnMin= -504.856599327326     IErMin=19 ErrMin= 1.78D-08
 ErrMax= 1.78D-08 EMaxC= 1.00D-01 BMatC= 7.77D-13 BMatP= 4.08D-12
 IDIUse=1 WtCom= 1.00D+00 WtEn= 0.00D+00
 Coeff-Com:  0.113D-06-0.158D-06-0.286D-06-0.420D-08-0.977D-07 0.333D-05
 Coeff-Com:  0.384D-05-0.118D-04 0.390D-04-0.356D-03-0.367D-03 0.450D-03
 Coeff-Com:  0.631D-02 0.230D-02-0.208D-01-0.497D-01-0.114D-01 0.320D+00
 Coeff-Com:  0.753D+00
 Coeff:      0.113D-06-0.158D-06-0.286D-06-0.420D-08-0.977D-07 0.333D-05
 Coeff:      0.384D-05-0.118D-04 0.390D-04-0.356D-03-0.367D-03 0.450D-03
 Coeff:      0.631D-02 0.230D-02-0.208D-01-0.497D-01-0.114D-01 0.320D+00
 Coeff:      0.753D+00
 Gap=     0.176 Goal=   None    Shift=    0.000
 Gap=     0.201 Goal=   None    Shift=    0.000
 RMSDP=8.75D-09 MaxDP=1.35D-06 DE=-2.73D-12 OVMax= 1.85D-07

 Cycle  20  Pass 1  IDiag  1:
 Restarting incremental Fock formation.
 E= -504.856599327239     Delta-E=        0.000000000087 Rises=F Damp=F
 DIIS: error= 5.48D-09 at cycle  20 NSaved=  20.
 NSaved=20 IEnMin=19 EnMin= -504.856599327326     IErMin=20 ErrMin= 5.48D-09
 ErrMax= 5.48D-09 EMaxC= 1.00D-01 BMatC= 6.99D-14 BMatP= 7.77D-13
 IDIUse=1 WtCom= 1.00D+00 WtEn= 0.00D+00
 Coeff-Com:  0.179D-07-0.532D-07-0.118D-06-0.209D-07 0.171D-06 0.158D-06
 Coeff-Com:  0.230D-05 0.245D-05 0.784D-05-0.283D-04-0.559D-04-0.228D-03
 Coeff-Com: -0.261D-03 0.191D-02 0.425D-02-0.921D-02-0.517D-01-0.183D-01
 Coeff-Com:  0.193D+00 0.881D+00
 Coeff:      0.179D-07-0.532D-07-0.118D-06-0.209D-07 0.171D-06 0.158D-06
 Coeff:      0.230D-05 0.245D-05 0.784D-05-0.283D-04-0.559D-04-0.228D-03
 Coeff:     -0.261D-03 0.191D-02 0.425D-02-0.921D-02-0.517D-01-0.183D-01
 Coeff:      0.193D+00 0.881D+00
 Gap=     0.176 Goal=   None    Shift=    0.000
 Gap=     0.201 Goal=   None    Shift=    0.000
 RMSDP=1.48D-08 MaxDP=1.92D-06 DE= 8.69D-11 OVMax= 1.44D-07

 Cycle  21  Pass 1  IDiag  1:
 RMSU=  1.01D-08    CP:  1.00D+00
 E= -504.856599327241     Delta-E=       -0.000000000002 Rises=F Damp=F
 DIIS: error= 2.48D-09 at cycle  21 NSaved=  20.
 NSaved=20 IEnMin=18 EnMin= -504.856599327326     IErMin=20 ErrMin= 2.48D-09
 ErrMax= 2.48D-09 EMaxC= 1.00D-01 BMatC= 1.30D-14 BMatP= 6.99D-14
 IDIUse=1 WtCom= 1.00D+00 WtEn= 0.00D+00
 Coeff-Com:  0.132D-07-0.340D-07-0.114D-07 0.247D-07-0.454D-06 0.279D-06
 Coeff-Com:  0.307D-05-0.148D-05 0.379D-04 0.264D-04-0.139D-03-0.954D-03
 Coeff-Com:  0.262D-03 0.427D-02 0.435D-02-0.141D-01-0.518D-01-0.536D-01
 Coeff-Com:  0.258D+00 0.854D+00
 Coeff:      0.132D-07-0.340D-07-0.114D-07 0.247D-07-0.454D-06 0.279D-06
 Coeff:      0.307D-05-0.148D-05 0.379D-04 0.264D-04-0.139D-03-0.954D-03
 Coeff:      0.262D-03 0.427D-02 0.435D-02-0.141D-01-0.518D-01-0.536D-01
 Coeff:      0.258D+00 0.854D+00
 Gap=     0.176 Goal=   None    Shift=    0.000
 Gap=     0.201 Goal=   None    Shift=    0.000
 RMSDP=4.30D-09 MaxDP=5.75D-07 DE=-1.59D-12 OVMax= 8.31D-08

 SCF Done:  E(UB3LYP) =  -504.856599327     A.U. after   21 cycles
             Convg  =    0.4299D-08             -V/T =  2.0045
 <Sx>= 0.0000 <Sy>= 0.0000 <Sz>= 0.5000 <S**2>= 0.7542 S= 0.5021
 <L.S>= 0.000000000000E+00
 KE= 5.026088175847D+02 PE=-2.460068789717D+03 EE= 8.106925541148D+02
 Annihilation of the first spin contaminant:
 S**2 before annihilation     0.7542,   after     0.7500
 Leave Link  502 at Fri Feb  7 19:23:23 2014, MaxMem= 4026531840 cpu:    3854.3
 (Enter /usr/caen/gaussian-09revc/g09/l601.exe)
 Copying SCF densities to generalized density rwf, IOpCl= 1 IROHF=0.

 **********************************************************************

            Population analysis using the SCF density.

 **********************************************************************

 Orbital symmetries:
 Alpha Orbitals:
       Occupied  (A) (A) (A) (A) (A) (A) (A) (A) (A) (A) (A) (A)
                 (A) (A) (A) (A) (A) (A) (A) (A) (A) (A) (A) (A)
                 (A) (A) (A) (A) (A) (A) (A) (A) (A) (A) (A) (A)
                 (A) (A) (A) (A) (A) (A) (A) (A) (A)
       Virtual   (A) (A) (A) (A) (A) (A) (A) (A) (A) (A) (A) (A)
                 (A) (A) (A) (A) (A) (A) (A) (A) (A) (A) (A) (A)
                 (A) (A) (A) (A) (A) (A) (A) (A) (A) (A) (A) (A)
                 (A) (A) (A) (A) (A) (A) (A) (A) (A) (A) (A) (A)
                 (A) (A) (A) (A) (A) (A) (A) (A) (A) (A) (A) (A)
                 (A) (A) (A) (A) (A) (A) (A) (A) (A) (A) (A) (A)
                 (A) (A) (A) (A) (A) (A) (A) (A) (A) (A) (A) (A)
                 (A) (A) (A) (A) (A) (A) (A) (A) (A) (A) (A) (A)
                 (A) (A) (A) (A) (A) (A) (A) (A) (A) (A) (A) (A)
                 (A) (A) (A) (A) (A) (A) (A) (A) (A) (A) (A) (A)
                 (A) (A) (A) (A) (A) (A) (A) (A) (A) (A) (A) (A)
                 (A) (A) (A) (A) (A) (A) (A) (A) (A) (A) (A) (A)
                 (A) (A) (A) (A) (A) (A) (A) (A) (A) (A) (A) (A)
                 (A) (A) (A) (A) (A) (A) (A) (A) (A) (A) (A) (A)
                 (A) (A) (A) (A) (A) (A) (A) (A) (A) (A) (A) (A)
                 (A) (A) (A) (A) (A) (A) (A) (A) (A) (A) (A) (A)
                 (A) (A) (A) (A) (A) (A) (A) (A) (A) (A) (A) (A)
                 (A) (A) (A) (A) (A) (A) (A) (A) (A) (A) (A) (A)
                 (A) (A) (A) (A) (A) (A) (A) (A) (A) (A) (A) (A)
                 (A) (A) (A) (A) (A) (A) (A) (A) (A) (A) (A) (A)
                 (A) (A) (A) (A) (A) (A) (A) (A) (A) (A) (A) (A)
                 (A) (A) (A) (A) (A) (A) (A) (A) (A) (A) (A) (A)
                 (A) (A) (A) (A) (A) (A) (A) (A) (A) (A) (A) (A)
                 (A) (A) (A) (A) (A) (A) (A) (A) (A) (A) (A) (A)
                 (A) (A) (A) (A) (A) (A) (A) (A) (A) (A) (A) (A)
                 (A) (A) (A) (A) (A) (A) (A) (A) (A) (A) (A) (A)
                 (A) (A) (A) (A) (A) (A) (A) (A) (A) (A) (A) (A)
                 (A) (A) (A) (A) (A) (A)
 Beta  Orbitals:
       Occupied  (A) (A) (A) (A) (A) (A) (A) (A) (A) (A) (A) (A)
                 (A) (A) (A) (A) (A) (A) (A) (A) (A) (A) (A) (A)
                 (A) (A) (A) (A) (A) (A) (A) (A) (A) (A) (A) (A)
                 (A) (A) (A) (A) (A) (A) (A) (A)
       Virtual   (A) (A) (A) (A) (A) (A) (A) (A) (A) (A) (A) (A)
                 (A) (A) (A) (A) (A) (A) (A) (A) (A) (A) (A) (A)
                 (A) (A) (A) (A) (A) (A) (A) (A) (A) (A) (A) (A)
                 (A) (A) (A) (A) (A) (A) (A) (A) (A) (A) (A) (A)
                 (A) (A) (A) (A) (A) (A) (A) (A) (A) (A) (A) (A)
                 (A) (A) (A) (A) (A) (A) (A) (A) (A) (A) (A) (A)
                 (A) (A) (A) (A) (A) (A) (A) (A) (A) (A) (A) (A)
                 (A) (A) (A) (A) (A) (A) (A) (A) (A) (A) (A) (A)
                 (A) (A) (A) (A) (A) (A) (A) (A) (A) (A) (A) (A)
                 (A) (A) (A) (A) (A) (A) (A) (A) (A) (A) (A) (A)
                 (A) (A) (A) (A) (A) (A) (A) (A) (A) (A) (A) (A)
                 (A) (A) (A) (A) (A) (A) (A) (A) (A) (A) (A) (A)
                 (A) (A) (A) (A) (A) (A) (A) (A) (A) (A) (A) (A)
                 (A) (A) (A) (A) (A) (A) (A) (A) (A) (A) (A) (A)
                 (A) (A) (A) (A) (A) (A) (A) (A) (A) (A) (A) (A)
                 (A) (A) (A) (A) (A) (A) (A) (A) (A) (A) (A) (A)
                 (A) (A) (A) (A) (A) (A) (A) (A) (A) (A) (A) (A)
                 (A) (A) (A) (A) (A) (A) (A) (A) (A) (A) (A) (A)
                 (A) (A) (A) (A) (A) (A) (A) (A) (A) (A) (A) (A)
                 (A) (A) (A) (A) (A) (A) (A) (A) (A) (A) (A) (A)
                 (A) (A) (A) (A) (A) (A) (A) (A) (A) (A) (A) (A)
                 (A) (A) (A) (A) (A) (A) (A) (A) (A) (A) (A) (A)
                 (A) (A) (A) (A) (A) (A) (A) (A) (A) (A) (A) (A)
                 (A) (A) (A) (A) (A) (A) (A) (A) (A) (A) (A) (A)
                 (A) (A) (A) (A) (A) (A) (A) (A) (A) (A) (A) (A)
                 (A) (A) (A) (A) (A) (A) (A) (A) (A) (A) (A) (A)
                 (A) (A) (A) (A) (A) (A) (A) (A) (A) (A) (A) (A)
                 (A) (A) (A) (A) (A) (A) (A)
 The electronic state is 2-A.
 Alpha  occ. eigenvalues --  -19.18145 -19.17876 -10.22262 -10.18600 -10.17365
 Alpha  occ. eigenvalues --  -10.16903 -10.16488 -10.16372 -10.16289 -10.15672
 Alpha  occ. eigenvalues --  -10.15651  -1.11832  -0.91859  -0.82248  -0.80208
 Alpha  occ. eigenvalues --   -0.75055  -0.68641  -0.68415  -0.67746  -0.60865
 Alpha  occ. eigenvalues --   -0.56301  -0.55598  -0.51515  -0.48830  -0.48008
 Alpha  occ. eigenvalues --   -0.46870  -0.45102  -0.44196  -0.43335  -0.41674
 Alpha  occ. eigenvalues --   -0.41403  -0.40175  -0.38562  -0.38150  -0.37776
 Alpha  occ. eigenvalues --   -0.36293  -0.35651  -0.35387  -0.33922  -0.32347
 Alpha  occ. eigenvalues --   -0.32228  -0.31967  -0.31323  -0.26809  -0.19335
 Alpha virt. eigenvalues --   -0.01712  -0.00502  -0.00045   0.00454   0.00973
 Alpha virt. eigenvalues --    0.01804   0.02101   0.02326   0.03517   0.03810
 Alpha virt. eigenvalues --    0.04010   0.04254   0.05295   0.05499   0.06130
 Alpha virt. eigenvalues --    0.06577   0.07140   0.07538   0.08579   0.08761
 Alpha virt. eigenvalues --    0.09432   0.09616   0.09773   0.10577   0.10641
 Alpha virt. eigenvalues --    0.11485   0.11707   0.11929   0.12198   0.12944
 Alpha virt. eigenvalues --    0.13273   0.13411   0.13827   0.14025   0.14314
 Alpha virt. eigenvalues --    0.14534   0.14759   0.14828   0.15420   0.15602
 Alpha virt. eigenvalues --    0.15891   0.16288   0.16636   0.16850   0.17445
 Alpha virt. eigenvalues --    0.17496   0.17969   0.18105   0.18470   0.18774
 Alpha virt. eigenvalues --    0.19164   0.19410   0.19938   0.20744   0.21247
 Alpha virt. eigenvalues --    0.21740   0.21771   0.22028   0.22508   0.22783
 Alpha virt. eigenvalues --    0.23753   0.23929   0.24467   0.25128   0.25332
 Alpha virt. eigenvalues --    0.25883   0.26245   0.27347   0.27640   0.27817
 Alpha virt. eigenvalues --    0.29151   0.29770   0.30764   0.31502   0.32025
 Alpha virt. eigenvalues --    0.32282   0.32671   0.33076   0.33543   0.33813
 Alpha virt. eigenvalues --    0.34176   0.34620   0.35301   0.35872   0.36737
 Alpha virt. eigenvalues --    0.37796   0.37917   0.38339   0.40455   0.40695
 Alpha virt. eigenvalues --    0.42512   0.44047   0.44430   0.45895   0.47308
 Alpha virt. eigenvalues --    0.48132   0.50146   0.50715   0.52428   0.53079
 Alpha virt. eigenvalues --    0.53999   0.54818   0.55609   0.56494   0.56903
 Alpha virt. eigenvalues --    0.57383   0.59660   0.61097   0.61241   0.62475
 Alpha virt. eigenvalues --    0.63239   0.63936   0.65456   0.65785   0.66437
 Alpha virt. eigenvalues --    0.67013   0.68256   0.68530   0.69467   0.69913
 Alpha virt. eigenvalues --    0.70118   0.70507   0.71706   0.72095   0.72469
 Alpha virt. eigenvalues --    0.73023   0.73957   0.75099   0.75740   0.76685
 Alpha virt. eigenvalues --    0.78247   0.78624   0.79300   0.80139   0.81357
 Alpha virt. eigenvalues --    0.81807   0.83757   0.87267   0.87900   0.90080
 Alpha virt. eigenvalues --    0.92185   0.96331   0.97030   0.99811   1.01847
 Alpha virt. eigenvalues --    1.02341   1.04934   1.06494   1.09088   1.10239
 Alpha virt. eigenvalues --    1.11728   1.12145   1.13186   1.13767   1.17151
 Alpha virt. eigenvalues --    1.17826   1.18771   1.21637   1.23024   1.23630
 Alpha virt. eigenvalues --    1.27994   1.30793   1.36438   1.38766   1.40608
 Alpha virt. eigenvalues --    1.42365   1.45168   1.45408   1.45729   1.46442
 Alpha virt. eigenvalues --    1.47563   1.48461   1.49899   1.50570   1.51435
 Alpha virt. eigenvalues --    1.53608   1.56401   1.57417   1.58166   1.58573
 Alpha virt. eigenvalues --    1.59471   1.59740   1.61106   1.61794   1.62639
 Alpha virt. eigenvalues --    1.63723   1.64098   1.64741   1.65577   1.67169
 Alpha virt. eigenvalues --    1.67518   1.68317   1.69506   1.70169   1.70907
 Alpha virt. eigenvalues --    1.71887   1.72795   1.73691   1.74001   1.75118
 Alpha virt. eigenvalues --    1.76916   1.77726   1.78583   1.80544   1.81907
 Alpha virt. eigenvalues --    1.82223   1.85089   1.87487   1.88194   1.91804
 Alpha virt. eigenvalues --    1.93300   1.95994   1.98220   2.00002   2.03220
 Alpha virt. eigenvalues --    2.03723   2.05301   2.07191   2.08500   2.10390
 Alpha virt. eigenvalues --    2.10867   2.14072   2.14504   2.16560   2.19299
 Alpha virt. eigenvalues --    2.22293   2.23796   2.25437   2.27355   2.29816
 Alpha virt. eigenvalues --    2.31996   2.33216   2.35118   2.38000   2.40103
 Alpha virt. eigenvalues --    2.41047   2.43399   2.46731   2.46946   2.48801
 Alpha virt. eigenvalues --    2.49777   2.50614   2.50990   2.51697   2.52911
 Alpha virt. eigenvalues --    2.53831   2.54632   2.55136   2.56099   2.57238
 Alpha virt. eigenvalues --    2.58352   2.60333   2.60902   2.62516   2.63370
 Alpha virt. eigenvalues --    2.64912   2.65417   2.66521   2.67985   2.69417
 Alpha virt. eigenvalues --    2.70641   2.72380   2.73671   2.75900   2.76323
 Alpha virt. eigenvalues --    2.76579   2.77539   2.81196   2.82615   2.83884
 Alpha virt. eigenvalues --    2.86608   2.88063   2.90031   2.92846   2.93127
 Alpha virt. eigenvalues --    2.95657   2.97059   2.97814   3.00971   3.02902
 Alpha virt. eigenvalues --    3.04157   3.08201   3.10413   3.11221   3.14438
 Alpha virt. eigenvalues --    3.16096   3.17677   3.23669   3.27336   3.33826
 Alpha virt. eigenvalues --    3.42879   3.51257   3.63204   3.70267   3.75527
 Alpha virt. eigenvalues --    3.78519   3.78939   3.80404   3.82093   3.82437
 Alpha virt. eigenvalues --    3.83555   3.84022   3.85764   3.88459   3.90360
 Alpha virt. eigenvalues --    3.99275   4.03084   4.08387   4.18961   4.28235
 Alpha virt. eigenvalues --    4.30254   4.32535   4.42535   4.87869   5.02232
 Alpha virt. eigenvalues --    5.07798   5.34912   5.51647   5.64169  23.77770
 Alpha virt. eigenvalues --   23.83613  23.85116  23.90042  23.91914  23.93307
 Alpha virt. eigenvalues --   23.98040  23.98334  23.98809  49.85292  49.88660
  Beta  occ. eigenvalues --  -19.17905 -19.17882 -10.22337 -10.17365 -10.17271
  Beta  occ. eigenvalues --  -10.16975 -10.16463 -10.16450 -10.16288 -10.15672
  Beta  occ. eigenvalues --  -10.15651  -1.11563  -0.91509  -0.81882  -0.79233
  Beta  occ. eigenvalues --   -0.74601  -0.68449  -0.68348  -0.67587  -0.60585
  Beta  occ. eigenvalues --   -0.56130  -0.54947  -0.50827  -0.48281  -0.47776
  Beta  occ. eigenvalues --   -0.46463  -0.44793  -0.44024  -0.43135  -0.41487
  Beta  occ. eigenvalues --   -0.40483  -0.39851  -0.38534  -0.37839  -0.37580
  Beta  occ. eigenvalues --   -0.36228  -0.35467  -0.35225  -0.33657  -0.32265
  Beta  occ. eigenvalues --   -0.32151  -0.31628  -0.31159  -0.26564
  Beta virt. eigenvalues --   -0.06418  -0.01667  -0.00471  -0.00008   0.00498
  Beta virt. eigenvalues --    0.01195   0.01869   0.02153   0.02358   0.03547
  Beta virt. eigenvalues --    0.03860   0.04021   0.04276   0.05363   0.05548
  Beta virt. eigenvalues --    0.06185   0.06590   0.07242   0.07557   0.08608
  Beta virt. eigenvalues --    0.08862   0.09435   0.09656   0.09779   0.10591
  Beta virt. eigenvalues --    0.10661   0.11492   0.11767   0.12027   0.12228
  Beta virt. eigenvalues --    0.12974   0.13292   0.13493   0.13850   0.14080
  Beta virt. eigenvalues --    0.14352   0.14567   0.14790   0.14967   0.15484
  Beta virt. eigenvalues --    0.15673   0.15961   0.16470   0.16808   0.16901
  Beta virt. eigenvalues --    0.17523   0.17599   0.18024   0.18231   0.18546
  Beta virt. eigenvalues --    0.18815   0.19375   0.19552   0.20142   0.20842
  Beta virt. eigenvalues --    0.21413   0.21784   0.21815   0.22107   0.22649
  Beta virt. eigenvalues --    0.22818   0.23896   0.24023   0.24538   0.25206
  Beta virt. eigenvalues --    0.25752   0.26060   0.26487   0.27428   0.27730
  Beta virt. eigenvalues --    0.28168   0.29640   0.29976   0.30981   0.31579
  Beta virt. eigenvalues --    0.32158   0.32463   0.32848   0.33428   0.33621
  Beta virt. eigenvalues --    0.33964   0.34402   0.34762   0.35391   0.35951
  Beta virt. eigenvalues --    0.36954   0.38033   0.38272   0.38500   0.40605
  Beta virt. eigenvalues --    0.40728   0.42655   0.44159   0.44509   0.45981
  Beta virt. eigenvalues --    0.47577   0.48174   0.50201   0.50885   0.52460
  Beta virt. eigenvalues --    0.53186   0.54086   0.54927   0.55678   0.56563
  Beta virt. eigenvalues --    0.57104   0.57620   0.59900   0.61264   0.61428
  Beta virt. eigenvalues --    0.62733   0.63437   0.65286   0.65924   0.66533
  Beta virt. eigenvalues --    0.66768   0.67103   0.68292   0.68697   0.69633
  Beta virt. eigenvalues --    0.70050   0.70471   0.70857   0.71808   0.72313
  Beta virt. eigenvalues --    0.72779   0.73203   0.74103   0.75173   0.75827
  Beta virt. eigenvalues --    0.76836   0.78313   0.78746   0.79490   0.80235
  Beta virt. eigenvalues --    0.81706   0.82018   0.84007   0.87486   0.88051
  Beta virt. eigenvalues --    0.91793   0.92539   0.96479   0.97219   0.99983
  Beta virt. eigenvalues --    1.01933   1.02587   1.05373   1.06793   1.09296
  Beta virt. eigenvalues --    1.10391   1.11875   1.12344   1.13225   1.13840
  Beta virt. eigenvalues --    1.17245   1.18057   1.18853   1.21824   1.23155
  Beta virt. eigenvalues --    1.23868   1.28320   1.31065   1.36818   1.39091
  Beta virt. eigenvalues --    1.41290   1.43193   1.45268   1.45747   1.46031
  Beta virt. eigenvalues --    1.46600   1.47608   1.48551   1.50226   1.50863
  Beta virt. eigenvalues --    1.51621   1.54175   1.56454   1.57527   1.58255
  Beta virt. eigenvalues --    1.58979   1.59775   1.60158   1.61473   1.62369
  Beta virt. eigenvalues --    1.62745   1.64015   1.64243   1.64815   1.65945
  Beta virt. eigenvalues --    1.67344   1.68268   1.69068   1.69892   1.70370
  Beta virt. eigenvalues --    1.71210   1.72229   1.73081   1.73896   1.74127
  Beta virt. eigenvalues --    1.75407   1.77153   1.77864   1.78733   1.80601
  Beta virt. eigenvalues --    1.81997   1.82428   1.85335   1.87856   1.88557
  Beta virt. eigenvalues --    1.92259   1.94319   1.96283   1.98400   2.00548
  Beta virt. eigenvalues --    2.03481   2.04208   2.05714   2.07241   2.08607
  Beta virt. eigenvalues --    2.10635   2.11232   2.14360   2.14574   2.16875
  Beta virt. eigenvalues --    2.19491   2.22497   2.24021   2.25908   2.27763
  Beta virt. eigenvalues --    2.30217   2.32170   2.34255   2.35318   2.38193
  Beta virt. eigenvalues --    2.40454   2.41193   2.43554   2.46767   2.47183
  Beta virt. eigenvalues --    2.49008   2.49863   2.50708   2.51042   2.51923
  Beta virt. eigenvalues --    2.52985   2.54129   2.54751   2.55213   2.56294
  Beta virt. eigenvalues --    2.57515   2.58425   2.60428   2.61108   2.62681
  Beta virt. eigenvalues --    2.63588   2.65119   2.65605   2.66835   2.68241
  Beta virt. eigenvalues --    2.69766   2.70886   2.72585   2.73975   2.75983
  Beta virt. eigenvalues --    2.76491   2.76694   2.77641   2.81248   2.82825
  Beta virt. eigenvalues --    2.84059   2.86902   2.88493   2.90272   2.93034
  Beta virt. eigenvalues --    2.93547   2.95903   2.97757   2.99086   3.01465
  Beta virt. eigenvalues --    3.03911   3.04487   3.08571   3.10498   3.11575
  Beta virt. eigenvalues --    3.15600   3.16444   3.17748   3.23925   3.27656
  Beta virt. eigenvalues --    3.34217   3.43041   3.51301   3.63527   3.70361
  Beta virt. eigenvalues --    3.75771   3.78540   3.78976   3.80416   3.82239
  Beta virt. eigenvalues --    3.82504   3.83650   3.84186   3.85886   3.88597
  Beta virt. eigenvalues --    3.90443   3.99285   4.03467   4.08616   4.19243
  Beta virt. eigenvalues --    4.29533   4.30260   4.32891   4.43030   4.87962
  Beta virt. eigenvalues --    5.02243   5.08034   5.35324   5.51819   5.64308
  Beta virt. eigenvalues --   23.79083  23.83619  23.85231  23.90041  23.91907
  Beta virt. eigenvalues --   23.93284  23.98041  23.98266  23.98808  49.85379
  Beta virt. eigenvalues --   49.88812
          Condensed to atoms (all electrons):
              1          2          3          4          5          6
     1  C    6.666529   0.407992   0.360728   0.365066  -0.880369   1.120733
     2  H    0.407992   0.597297  -0.065827  -0.018155  -0.030045  -0.086424
     3  H    0.360728  -0.065827   0.577519  -0.033134  -0.078335   0.087292
     4  H    0.365066  -0.018155  -0.033134   0.564312   0.018768  -0.015578
     5  C   -0.880369  -0.030045  -0.078335   0.018768  12.812398  -7.352220
     6  C    1.120733  -0.086424   0.087292  -0.015578  -7.352220  19.420114
     7  H    0.076249   0.001359   0.000818   0.002429  -0.263087   0.750406
     8  H   -0.072564  -0.000343   0.013560  -0.004043   0.080058   0.038803
     9  C   -0.661816   0.030805  -0.027304   0.004527   2.122753  -4.649125
    10  H    0.015129  -0.001620   0.000903  -0.000230  -0.003871   0.023288
    11  H   -0.058966   0.007009  -0.005223   0.001655   0.271893  -1.086894
    12  C   -0.108350  -0.011600   0.017109  -0.007102  -1.119081   0.732587
    13  H    0.013183  -0.001784   0.001353   0.000126  -0.000508   0.157218
    14  H   -0.018386   0.003515  -0.001632  -0.000249   0.014689  -0.193697
    15  C   -0.040066   0.003776  -0.000381  -0.001188  -0.187791  -0.936481
    16  H   -0.000083   0.000058   0.000069   0.000005   0.018212  -0.057229
    17  C   -0.010069   0.000588  -0.000131  -0.000115   0.003774  -0.270247
    18  H    0.000053   0.000039  -0.000016  -0.000002   0.000512  -0.005829
    19  H   -0.000382   0.000028   0.000000  -0.000010  -0.002149  -0.013451
    20  H    0.000434  -0.000139   0.000023   0.000022   0.000852   0.014273
    21  C   -0.688633   0.023148  -0.032198  -0.033231   0.111720  -1.223284
    22  H   -0.092205   0.006088  -0.010012   0.005481  -0.145778   0.069879
    23  H    0.044131  -0.003039  -0.001576   0.004606   0.192299  -0.347976
    24  C    0.003620  -0.000825   0.000438  -0.000150  -0.090250   0.368944
    25  H    0.000436  -0.000038   0.000020  -0.000009  -0.005145   0.024673
    26  H   -0.000713   0.000057  -0.000040   0.000018   0.009744  -0.042473
    27  H    0.002352  -0.000158   0.000104  -0.000073  -0.023423   0.085535
    28  O   -0.049170  -0.001485   0.003315  -0.002551  -0.043757  -0.170555
    29  O   -0.063153   0.001100  -0.002384   0.002545   0.172317  -0.422315
    30  H    0.004715   0.000166   0.000280  -0.000856  -0.057910  -0.021326
              7          8          9         10         11         12
     1  C    0.076249  -0.072564  -0.661816   0.015129  -0.058966  -0.108350
     2  H    0.001359  -0.000343   0.030805  -0.001620   0.007009  -0.011600
     3  H    0.000818   0.013560  -0.027304   0.000903  -0.005223   0.017109
     4  H    0.002429  -0.004043   0.004527  -0.000230   0.001655  -0.007102
     5  C   -0.263087   0.080058   2.122753  -0.003871   0.271893  -1.119081
     6  C    0.750406   0.038803  -4.649125   0.023288  -1.086894   0.732587
     7  H    0.709936  -0.121559  -0.176324  -0.014751  -0.017846   0.009384
     8  H   -0.121559   0.656590   0.065804   0.010449   0.038656   0.087467
     9  C   -0.176324   0.065804   9.086559   0.467479   0.696916  -1.850330
    10  H   -0.014751   0.010449   0.467479   0.644740  -0.136882  -0.112062
    11  H   -0.017846   0.038656   0.696916  -0.136882   0.941654   0.062204
    12  C    0.009384   0.087467  -1.850330  -0.112062   0.062204   9.525948
    13  H    0.013348  -0.012236  -0.092131   0.027501  -0.066025   0.392317
    14  H   -0.021565   0.017391   0.004091  -0.035806   0.056258   0.380399
    15  C   -0.036711   0.028362   0.146582  -0.012945   0.232380  -1.064329
    16  H   -0.002404   0.001999  -0.009135   0.013017   0.023338  -0.117137
    17  C   -0.015193   0.013054  -0.217261  -0.013766   0.066763   0.309420
    18  H   -0.001261   0.000897   0.004265   0.000800   0.004547  -0.089385
    19  H   -0.000696   0.000723  -0.010829  -0.001051   0.003755   0.036917
    20  H    0.003381  -0.001656  -0.001526   0.000615  -0.005437  -0.001089
    21  C   -0.022165  -0.014155   0.792200   0.007332  -0.019650  -0.232456
    22  H   -0.002876  -0.004380   0.015646  -0.001417  -0.001254  -0.005246
    23  H   -0.000939   0.001923   0.102473  -0.003885   0.009633  -0.056567
    24  C    0.011313  -0.016164   0.096384  -0.015204  -0.098341   0.051677
    25  H    0.000862  -0.001114   0.026273   0.001188  -0.014834   0.024935
    26  H   -0.001190   0.001690   0.008568   0.001835   0.014950  -0.080098
    27  H    0.002262  -0.004144   0.044436   0.004504  -0.039014  -0.063026
    28  O   -0.008174   0.026137   0.041817   0.000542   0.003866   0.038025
    29  O    0.001006   0.004912   0.134005  -0.007585   0.092015   0.050418
    30  H   -0.002232   0.001512   0.007734  -0.000278   0.004269  -0.002905
             13         14         15         16         17         18
     1  C    0.013183  -0.018386  -0.040066  -0.000083  -0.010069   0.000053
     2  H   -0.001784   0.003515   0.003776   0.000058   0.000588   0.000039
     3  H    0.001353  -0.001632  -0.000381   0.000069  -0.000131  -0.000016
     4  H    0.000126  -0.000249  -0.001188   0.000005  -0.000115  -0.000002
     5  C   -0.000508   0.014689  -0.187791   0.018212   0.003774   0.000512
     6  C    0.157218  -0.193697  -0.936481  -0.057229  -0.270247  -0.005829
     7  H    0.013348  -0.021565  -0.036711  -0.002404  -0.015193  -0.001261
     8  H   -0.012236   0.017391   0.028362   0.001999   0.013054   0.000897
     9  C   -0.092131   0.004091   0.146582  -0.009135  -0.217261   0.004265
    10  H    0.027501  -0.035806  -0.012945   0.013017  -0.013766   0.000800
    11  H   -0.066025   0.056258   0.232380   0.023338   0.066763   0.004547
    12  C    0.392317   0.380399  -1.064329  -0.117137   0.309420  -0.089385
    13  H    0.635382  -0.099893  -0.054434   0.019677  -0.043503   0.003277
    14  H   -0.099893   0.698528   0.006794  -0.014288   0.059368   0.003866
    15  C   -0.054434   0.006794   7.165904   0.584868   0.017251   0.099846
    16  H    0.019677  -0.014288   0.584868   0.627554  -0.047855   0.016436
    17  C   -0.043503   0.059368   0.017251  -0.047855   5.834879   0.377598
    18  H    0.003277   0.003866   0.099846   0.016436   0.377598   0.561713
    19  H   -0.006745   0.004329  -0.076883  -0.011733   0.419112  -0.032409
    20  H    0.007799  -0.005770  -0.066278  -0.013856   0.396635  -0.047568
    21  C   -0.007215   0.017204   0.031697  -0.008872   0.009104  -0.000404
    22  H   -0.001125   0.001783   0.001819  -0.001052   0.000574  -0.000009
    23  H    0.002604  -0.001067  -0.015656   0.001923  -0.002049  -0.000058
    24  C   -0.047046   0.009327  -0.227284  -0.142899  -0.235665  -0.039590
    25  H   -0.001207  -0.003876  -0.111990  -0.010376  -0.027929   0.001375
    26  H    0.011254  -0.001611   0.085581   0.016202   0.005635   0.012316
    27  H    0.008254  -0.001497  -0.096671  -0.021426  -0.009863  -0.006625
    28  O   -0.000615   0.000213   0.005520   0.000483   0.000265   0.000008
    29  O   -0.008042   0.003326   0.021770   0.000661   0.002451   0.000093
    30  H   -0.000304   0.000379   0.000198   0.000045  -0.000157   0.000001
             19         20         21         22         23         24
     1  C   -0.000382   0.000434  -0.688633  -0.092205   0.044131   0.003620
     2  H    0.000028  -0.000139   0.023148   0.006088  -0.003039  -0.000825
     3  H    0.000000   0.000023  -0.032198  -0.010012  -0.001576   0.000438
     4  H   -0.000010   0.000022  -0.033231   0.005481   0.004606  -0.000150
     5  C   -0.002149   0.000852   0.111720  -0.145778   0.192299  -0.090250
     6  C   -0.013451   0.014273  -1.223284   0.069879  -0.347976   0.368944
     7  H   -0.000696   0.003381  -0.022165  -0.002876  -0.000939   0.011313
     8  H    0.000723  -0.001656  -0.014155  -0.004380   0.001923  -0.016164
     9  C   -0.010829  -0.001526   0.792200   0.015646   0.102473   0.096384
    10  H   -0.001051   0.000615   0.007332  -0.001417  -0.003885  -0.015204
    11  H    0.003755  -0.005437  -0.019650  -0.001254   0.009633  -0.098341
    12  C    0.036917  -0.001089  -0.232456  -0.005246  -0.056567   0.051677
    13  H   -0.006745   0.007799  -0.007215  -0.001125   0.002604  -0.047046
    14  H    0.004329  -0.005770   0.017204   0.001783  -0.001067   0.009327
    15  C   -0.076883  -0.066278   0.031697   0.001819  -0.015656  -0.227284
    16  H   -0.011733  -0.013856  -0.008872  -0.001052   0.001923  -0.142899
    17  C    0.419112   0.396635   0.009104   0.000574  -0.002049  -0.235665
    18  H   -0.032409  -0.047568  -0.000404  -0.000009  -0.000058  -0.039590
    19  H    0.568706  -0.021530   0.000266   0.000015  -0.000202  -0.008126
    20  H   -0.021530   0.584481  -0.000283  -0.000030   0.000194   0.027490
    21  C    0.000266  -0.000283   6.939314   0.505610   0.341841   0.020563
    22  H    0.000015  -0.000030   0.505610   0.615043  -0.063075   0.001343
    23  H   -0.000202   0.000194   0.341841  -0.063075   0.656504  -0.004889
    24  C   -0.008126   0.027490   0.020563   0.001343  -0.004889   5.766438
    25  H   -0.000508   0.002298   0.000985   0.000107  -0.000259   0.436266
    26  H    0.001016  -0.003108  -0.001373  -0.000212   0.001012   0.336058
    27  H    0.000698  -0.000761   0.011612   0.001410  -0.005209   0.445809
    28  O    0.000025  -0.000018   0.267624  -0.099739  -0.061825  -0.000695
    29  O    0.000079  -0.000099   0.026288   0.033417  -0.006333  -0.010907
    30  H   -0.000002  -0.000007   0.065291  -0.001922   0.005901   0.000040
             25         26         27         28         29         30
     1  C    0.000436  -0.000713   0.002352  -0.049170  -0.063153   0.004715
     2  H   -0.000038   0.000057  -0.000158  -0.001485   0.001100   0.000166
     3  H    0.000020  -0.000040   0.000104   0.003315  -0.002384   0.000280
     4  H   -0.000009   0.000018  -0.000073  -0.002551   0.002545  -0.000856
     5  C   -0.005145   0.009744  -0.023423  -0.043757   0.172317  -0.057910
     6  C    0.024673  -0.042473   0.085535  -0.170555  -0.422315  -0.021326
     7  H    0.000862  -0.001190   0.002262  -0.008174   0.001006  -0.002232
     8  H   -0.001114   0.001690  -0.004144   0.026137   0.004912   0.001512
     9  C    0.026273   0.008568   0.044436   0.041817   0.134005   0.007734
    10  H    0.001188   0.001835   0.004504   0.000542  -0.007585  -0.000278
    11  H   -0.014834   0.014950  -0.039014   0.003866   0.092015   0.004269
    12  C    0.024935  -0.080098  -0.063026   0.038025   0.050418  -0.002905
    13  H   -0.001207   0.011254   0.008254  -0.000615  -0.008042  -0.000304
    14  H   -0.003876  -0.001611  -0.001497   0.000213   0.003326   0.000379
    15  C   -0.111990   0.085581  -0.096671   0.005520   0.021770   0.000198
    16  H   -0.010376   0.016202  -0.021426   0.000483   0.000661   0.000045
    17  C   -0.027929   0.005635  -0.009863   0.000265   0.002451  -0.000157
    18  H    0.001375   0.012316  -0.006625   0.000008   0.000093   0.000001
    19  H   -0.000508   0.001016   0.000698   0.000025   0.000079  -0.000002
    20  H    0.002298  -0.003108  -0.000761  -0.000018  -0.000099  -0.000007
    21  C    0.000985  -0.001373   0.011612   0.267624   0.026288   0.065291
    22  H    0.000107  -0.000212   0.001410  -0.099739   0.033417  -0.001922
    23  H   -0.000259   0.001012  -0.005209  -0.061825  -0.006333   0.005901
    24  C    0.436266   0.336058   0.445809  -0.000695  -0.010907   0.000040
    25  H    0.571026  -0.032601  -0.021497  -0.000054  -0.000685  -0.000022
    26  H   -0.032601   0.563113  -0.047984   0.000163   0.001491   0.000064
    27  H   -0.021497  -0.047984   0.603094  -0.000809  -0.006941  -0.000351
    28  O   -0.000054   0.000163  -0.000809   8.107402  -0.000986  -0.009009
    29  O   -0.000685   0.001491  -0.006941  -0.000986   8.006374   0.202452
    30  H   -0.000022   0.000064  -0.000351  -0.009009   0.202452   0.547875
 Mulliken atomic charges:
              1
     1  C   -0.336425
     2  H    0.138460
     3  H    0.194662
     4  H    0.147116
     5  C    0.453728
     6  C    0.001363
     7  H    0.126220
     8  H    0.162370
     9  C   -0.203536
    10  H    0.142031
    11  H    0.018606
    12  C   -0.798043
    13  H    0.149520
    14  H    0.117877
    15  C    0.496742
    16  H    0.133801
    17  C   -0.622669
    18  H    0.135514
    19  H    0.151036
    20  H    0.130659
    21  C   -0.887881
    22  H    0.172116
    23  H    0.209561
    24  C   -0.637674
    25  H    0.141700
    26  H    0.140636
    27  H    0.139401
    28  O   -0.045960
    29  O   -0.227288
    30  H    0.256360
 Sum of Mulliken atomic charges =   0.00000
 Mulliken charges with hydrogens summed into heavy atoms:
              1
     1  C    0.143812
     5  C    0.453728
     6  C    0.289953
     9  C   -0.042900
    12  C   -0.530646
    15  C    0.630543
    17  C   -0.205461
    21  C   -0.506204
    24  C   -0.215938
    28  O   -0.045960
    29  O    0.029072
 Sum of Mulliken charges with hydrogens summed into heavy atoms =   0.00000
          Atomic-Atomic Spin Densities.
              1          2          3          4          5          6
     1  C   -0.030169   0.055143  -0.054051   0.027999  -0.110150   0.031384
     2  H    0.055143   0.047449  -0.030895   0.007557  -0.054911   0.010692
     3  H   -0.054051  -0.030895   0.135196  -0.015630   0.007181  -0.016699
     4  H    0.027999   0.007557  -0.015630   0.012188  -0.028816   0.001192
     5  C   -0.110150  -0.054911   0.007181  -0.028816   1.018967   0.043683
     6  C    0.031384   0.010692  -0.016699   0.001192   0.043683  -0.238801
     7  H    0.035507   0.014135  -0.013186   0.002022  -0.058142   0.055940
     8  H   -0.051475  -0.011076   0.024638  -0.002153   0.008429  -0.092132
     9  C    0.008593  -0.006824   0.012514  -0.000769   0.034183   0.143572
    10  H   -0.005454  -0.000931   0.000786  -0.000121   0.020267  -0.022581
    11  H    0.000002  -0.000017   0.000182  -0.000223  -0.018894   0.007244
    12  C   -0.022167  -0.006591   0.007637  -0.001123   0.054923  -0.072208
[...]
 0.00108992,0.00008121,-0.00007053,-0.00007689,0.00011766,-0.00010032,-
 0.00085441,0.00019129,-0.00572157,-0.02001485,-0.00125043,0.00130878,0
 .00125902,0.00085723,-0.00146532,0.00051929,-0.00023846,0.00419463,-0.
 17494494,0.01144636,0.00049028,-0.01139631,0.00143995,0.00684125,-0.02
 008951,-0.00090060,-0.00141150,0.00110527,0.00066482,-0.00152835,0.001
 00686,0.00044872,0.00088058,0.00032163,-0.00065424,0.00005193,0.000078
 88,0.00005921,-0.00001083,-0.00001206,-0.00000568,0.00001019,-0.000015
 65,-0.00003235,-0.00190213,0.45859971,-0.00001276,0.00000158,0.0000255
 0,0.00000649,0.00000085,-0.00000334,-0.00001195,-0.00000236,-0.0000147
 3,-0.00002390,-0.00000315,0.00000391,0.00005524,0.00006181,-0.00006055
 ,0.00018406,-0.00040011,0.00028559,-0.00010539,-0.00001208,-0.00010311
 ,-0.00001237,0.00001928,-0.00006880,-0.00041555,0.00050124,-0.00024443
 ,-0.00011433,-0.00011886,0.00013653,0.00025256,-0.00059345,0.00044310,
 -0.00004478,-0.01507795,0.00084444,0.00009092,-0.00138863,0.00058592,-
 0.00261570,-0.00224679,-0.00089760,0.00015782,0.01370335,-0.08028478,-
 0.00110029,0.03368042,-0.00297523,0.00142098,-0.01474346,0.00140102,0.
 00000241,-0.00122492,0.00052389,-0.00075399,0.00057245,0.00015577,0.00
 240722,-0.00212491,-0.00080424,0.00009619,-0.00000840,0.00009411,-0.00
 004280,0.00000450,-0.00000511,-0.00000024,-0.00002023,-0.00005870,-0.0
 0112144,0.01538418,0.55704211,-0.00002803,0.00001929,0.00001830,0.0000
 0926,-0.00000077,-0.00000180,-0.00000574,-0.00000249,-0.00001123,-0.00
 002948,-0.00000623,0.00000845,0.00007967,-0.00000196,-0.00003633,0.000
 14173,-0.00020233,0.00010769,-0.00012187,-0.00006612,-0.00005434,-0.00
 001198,0.00001516,-0.00001117,-0.00009787,0.00032177,-0.00027497,0.000
 00114,-0.00009523,0.00007058,0.00038210,-0.00035419,0.00005003,0.00072
 322,0.00054732,0.00080028,0.00001577,0.00013651,0.00000042,0.00007817,
 -0.00003898,-0.00006119,0.00011274,0.00095002,0.00098134,0.00007875,-0
 .00050373,0.00037783,0.00075379,0.00092458,0.00033869,-0.00003937,-0.0
 0001344,0.00003135,0.00048787,-0.00000505,-0.00012212,0.00021734,-0.00
 007719,0.00014528,0.00006295,-0.00002894,0.00002981,-0.00003899,-0.000
 00250,0.00000322,0.00002027,-0.00002814,-0.00004652,-0.21742437,-0.084
 62924,-0.08923408,0.23550511,-0.00002920,0.00001710,0.00002750,0.00000
 869,0.00000534,-0.00000039,-0.00000266,-0.00000278,-0.00000671,-0.0000
 2297,-0.00000915,0.00000439,0.00001369,0.00001204,-0.00004855,-0.00022
 455,0.00012964,0.00011869,0.00005792,0.00011916,0.00002290,0.00001319,
 -0.00001008,-0.00000720,0.00078260,-0.00027417,-0.00020557,-0.00006565
 ,0.00001418,0.00004964,-0.00018784,0.00031795,0.00000598,0.00224944,-0
 .00647331,0.00179947,0.00024443,0.00016174,-0.00004011,-0.00176142,-0.
 00112830,-0.00080212,-0.02729513,-0.01348851,-0.01544506,0.00004046,0.
 00118238,0.00051217,-0.00167489,0.00141378,-0.00030848,0.00015146,-0.0
 0004282,0.00000545,0.00116298,-0.00006267,0.00006000,0.00006931,0.0004
 1643,0.00037928,0.00000379,-0.00010314,0.00000060,-0.00002105,0.000015
 21,0.00000424,0.00000435,-0.00000589,-0.00000537,-0.08329837,-0.087271
 00,-0.04344242,0.09242107,0.09719324,-0.00000545,0.00000651,0.00000004
 ,0.00000195,-0.00000195,0.00000027,0.00000039,-0.00000022,-0.00000138,
 -0.00000444,-0.00000159,0.00000269,0.00000451,-0.00000768,0.00000092,-
 0.00008178,0.00011913,-0.00002305,0.00005296,0.00001164,0.00002618,0.0
 0001471,0.00001032,0.00002324,0.00017410,-0.00004407,0.00013842,-0.000
 03591,-0.00002217,0.00000441,-0.00009617,0.00013587,-0.00013848,0.0001
 2785,0.00032322,0.00039433,0.00025580,0.00024902,0.00048038,-0.0000638
 4,-0.00008078,0.00042589,0.00364334,0.00197655,0.00064730,0.00041886,-
 0.00037635,0.00040775,-0.00030577,-0.00011552,-0.00011323,-0.00013115,
 -0.00005151,-0.00006130,0.00030674,-0.00024242,0.00021339,0.00025842,0
 .00012328,-0.00003538,-0.00000939,-0.00001104,-0.00001749,-0.00000023,
 -0.00000028,0.00000449,0.00000037,-0.00000246,0.00000315,-0.08889828,-
 0.04412738,-0.09344693,0.09820492,0.04807060,0.09734275,0.00000465,-0.
 00001067,0.00000351,-0.00000301,0.00000270,-0.00000036,-0.00000028,-0.
 00000042,-0.00000005,0.00000592,0.00000084,-0.00000285,-0.00002778,-0.
 00000052,-0.00001697,0.00001784,-0.00001380,-0.00000499,0.00000479,-0.
 00000245,-0.00000358,-0.00002762,-0.00002476,-0.00004053,-0.00017822,-
 0.00002587,-0.00006918,0.00006153,0.00014890,-0.00009654,-0.00004909,0
 .00006105,0.00017140,0.00030216,-0.00028137,0.00118215,0.00008045,-0.0
 0019818,-0.00014535,-0.00003757,0.00008073,-0.00012019,-0.00115308,-0.
 00009318,-0.00055035,0.00065963,0.00005278,0.00003346,0.00016023,0.000
 07761,-0.00103861,0.00017022,0.00021643,0.00018267,-0.00000518,0.00002
 553,-0.00013486,-0.00006664,-0.00014668,0.00018958,0.00004700,-0.00001
 069,0.00004294,0.00000172,0.00000541,-0.00000903,-0.00000927,0.0000003
 7,0.00000662,-0.04756771,0.00114393,-0.00299743,0.00022314,0.00750528,
 -0.02610187,0.04623854,-0.00000270,-0.00000039,0.00000439,0.00000027,0
 .00000084,0.00000231,-0.00000070,0.00000169,0.00000024,0.00000144,-0.0
 0000134,-0.00000186,-0.00000951,-0.00001272,-0.00001729,-0.00005964,0.
 00003770,0.00000669,0.00000490,0.00000500,0.00000957,-0.00003099,-0.00
 001091,-0.00002213,-0.00013396,-0.00003910,-0.00009276,0.00018926,0.00
 000651,-0.00013192,-0.00006430,0.00003582,0.00003736,0.00085409,0.0017
 4097,0.00150455,-0.00046013,-0.00013036,-0.00090906,0.00025583,0.00040
 962,-0.00036920,0.00033432,-0.01018647,0.03343206,0.00026656,-0.006776
 10,0.00037662,-0.00098687,0.00158646,0.00101390,0.00047783,-0.00009439
 ,-0.00080136,0.00006313,-0.00005001,-0.00011575,-0.00022294,0.00029721
 ,-0.00037633,-0.00001328,0.00000095,-0.00000703,0.00000498,-0.00000074
 ,0.00000013,-0.00000172,-0.00000002,0.00000499,0.00106088,-0.06314122,
 0.06153176,0.00092056,0.00287030,-0.01282268,-0.00112131,0.07073729,0.
 00001170,-0.00000023,-0.00001971,-0.00000157,-0.00000339,-0.00000134,0
 .00000506,0.00000141,0.00000859,0.00000828,0.00000481,-0.00000070,0.00
 000498,0.00000653,0.00004919,-0.00000675,0.00000322,-0.00007153,0.0000
 1004,0.00000191,0.00001246,0.00003320,0.00002448,0.00004884,0.00015300
 ,0.00016239,0.00008370,-0.00008163,-0.00010931,0.00008749,0.00004948,0
 .00006004,-0.00019933,-0.00025972,-0.00063457,0.00069759,0.00054718,0.
 00046297,0.00044615,0.00007955,0.00001988,0.00030572,0.00008499,0.0017
 3202,-0.00451882,-0.00009089,0.00072029,0.00160565,0.00010874,-0.00050
 669,0.00068242,-0.00052754,0.00036449,0.00039163,0.00004113,0.00002989
 ,-0.00007627,-0.00008349,0.00005315,0.00031769,-0.00008341,0.00005449,
 -0.00006411,0.00001172,-0.00001177,0.00000632,0.00001059,0.00001423,0.
 00000561,-0.00304599,0.06180904,-0.28371679,0.00028455,0.00282769,-0.0
 1273347,0.00347151,-0.06995406,0.30987242,0.00001723,-0.00000982,-0.00
 001361,-0.00000356,-0.00000514,0.00000019,-0.00000163,0.00000186,-0.00
 000040,0.00000957,0.00000548,-0.00000089,0.00002040,0.00002781,0.00001
 968,0.00019939,-0.00023158,-0.00005531,-0.00007986,-0.00007605,-0.0000
 3850,-0.00000789,0.00000470,-0.00001554,-0.00094032,-0.00042684,-0.000
 18821,0.00001017,0.00005150,0.00002832,-0.00064143,-0.00149087,-0.0001
 6222,-0.00016198,0.00027597,-0.00032361,-0.00001591,-0.00005035,-0.000
 04306,0.00011322,0.00011644,0.00010766,0.00020437,-0.00044466,-0.00075
 540,0.00022795,0.00049869,-0.00038678,0.00069721,0.00086443,-0.0006986
 4,0.00001047,-0.00014912,0.00000671,0.00047830,-0.00019624,0.00007505,
 0.00000401,0.00008623,0.00032428,0.00000855,0.00005166,0.00000649,0.00
 001438,0.00000137,0.00000149,-0.00000205,-0.00000371,0.00001210,-0.216
 83383,0.08183722,0.09399049,-0.02101406,0.00990211,0.01228078,0.001144
 78,-0.00135133,-0.00077880,0.23651847,0.00002134,-0.00001336,-0.000017
 34,-0.00000651,0.00000301,0.00000162,0.00000781,0.00000201,0.00001296,
 0.00002374,0.00000370,-0.00000685,-0.00009882,-0.00000418,0.00004436,-
 0.00036835,0.00035738,-0.00003518,0.00019319,0.00014145,0.00008093,0.0
 0006339,-0.00000135,0.00006429,0.00013596,-0.00073572,0.00003485,-0.00
 012087,-0.00013708,0.00010987,-0.00127637,0.00025467,-0.00034372,0.000
 78718,0.00116657,-0.00019975,-0.00010689,-0.00007203,0.00000874,0.0000
 4401,0.00013091,0.00018837,0.02724757,-0.01057328,-0.01562240,-0.00009
 784,0.00142157,0.00046519,-0.00157601,-0.00679631,0.00154412,-0.000241
 27,0.00009425,-0.00012139,-0.00003218,0.00017796,0.00026454,0.00187303
 ,-0.00096544,-0.00085319,-0.00011813,-0.00000332,-0.00008004,0.0000380
 1,0.00000376,0.00000274,-0.00001539,0.00004264,0.00004776,0.08041660,-
 0.08567909,-0.04408624,-0.01021739,0.00491487,0.00688615,-0.00743192,0
 .00271742,0.00294237,-0.08925264,0.09358263,0.00000748,-0.00000929,0.0
 0000052,-0.00000409,0.00000636,0.00000116,0.00000418,-0.00000137,0.000
 00407,0.00001211,-0.00000110,-0.00000333,-0.00006366,0.00000148,-0.000
 00199,-0.00020295,0.00029951,-0.00010749,0.00011037,0.00011439,0.00006
 080,-0.00000834,-0.00004574,-0.00001634,0.00049271,-0.00063172,0.00040
 604,-0.00000710,0.00019737,-0.00016505,-0.00056546,0.00031661,0.000090
 27,0.00059101,-0.00034868,-0.00011090,0.00006698,-0.00001876,0.0000135
 5,-0.00014650,0.00002125,-0.00001010,-0.00425931,0.00173498,0.00059257
 ,-0.00045345,-0.00041382,0.00050001,-0.00026860,0.00051293,0.00053689,
 -0.00028619,0.00026332,0.00042933,0.00030470,0.00005292,-0.00004205,0.
 00004221,0.00017549,0.00052822,0.00000977,-0.00006592,0.00001363,0.000
 01767,0.00001608,-0.00000705,-0.00001349,0.00000810,0.00004076,0.09352
 765,-0.04501303,-0.09880144,-0.01156418,0.00644576,0.00644741,0.026070
 97,-0.01230162,-0.01326741,-0.10339002,0.04860604,0.10287717,-0.000634
 90,-0.00158993,0.00089364,0.00035837,0.00035203,0.00028301,0.00109757,
 0.00097223,0.00122388,0.00041068,0.00036763,-0.00024878,-0.00930365,0.
 02485533,-0.00723392,0.00129097,-0.00036251,0.00106301,-0.00035789,0.0
 0040257,0.00031303,-0.00128958,0.00033221,0.00091898,-0.00035923,0.000
 72988,0.00017720,0.00025953,-0.00032421,0.00020355,-0.00037152,0.00000
 816,-0.00028315,0.00014021,-0.00012245,0.00003051,-0.00007785,0.000028
 38,0.00007284,-0.00001782,0.00002387,0.00000815,0.00005335,0.00009730,
 0.00008874,0.00001117,-0.00002602,0.00000720,-0.00003218,-0.00006660,-
 0.00005040,0.00000458,0.00000600,0.00002366,-0.00006730,-0.00000719,-0
 .00000620,0.00001828,0.00000231,0.00000260,-0.11594685,0.01900045,-0.0
 2009621,0.00767091,-0.01553626,0.01595016,-0.01750447,0.02353847,-0.02
 582445,-0.00002168,-0.00001136,-0.00004589,-0.00005492,-0.00003064,-0.
 00001024,-0.00000230,0.00000819,0.00003811,0.00000848,0.00006120,-0.00
 000480,0.27356207,0.00018354,0.00386381,-0.00236991,0.00020723,-0.0000
 9664,0.00025663,-0.00105734,-0.00112810,-0.00039281,-0.00059243,-0.000
 54832,0.00035807,0.02534731,-0.03853000,0.01736309,-0.00222581,-0.0000
 0724,-0.00089245,0.00082008,-0.00045770,-0.00047713,0.00140913,-0.0000
 2836,-0.00105821,-0.00037758,-0.00078327,-0.00023781,0.00010414,-0.000
 05993,0.00020242,0.00024018,0.00033913,-0.00006279,0.00019855,0.000383
 58,0.00024097,-0.00005532,-0.00001988,0.00003700,-0.00012049,0.0000825
 1,0.00003574,-0.00002599,-0.00015890,-0.00015788,0.00001126,0.00002002
 ,0.00001920,0.00005972,0.00010577,0.00006206,-0.00001272,-0.00001300,-
 0.00001466,0.00008791,0.00000455,0.00000508,-0.00003536,0.00001649,-0.
 00000342,0.05061387,-0.07815298,0.02736445,0.00200344,-0.00718087,0.01
 227382,0.00066660,0.00668946,0.00475037,0.00011930,-0.00001065,0.00002
 209,0.00004932,0.00005693,0.00001179,-0.00000795,-0.00000934,-0.000026
 68,-0.00004844,-0.00004932,0.00001214,-0.02079996,0.19036813,-0.000644
 40,-0.00043410,0.00059262,0.00026858,0.00002936,0.00028841,0.00062390,
 0.00050456,0.00072973,0.00026403,0.00012640,-0.00023853,0.00220041,0.0
 1095940,0.01291187,-0.00003804,0.00036908,-0.00152479,-0.00012724,0.00
 003146,-0.00008700,0.00009822,-0.00023804,0.00014090,-0.00044776,-0.00
 028044,-0.00020091,-0.00000518,-0.00016650,0.00022937,0.00004894,0.000
 16876,-0.00018308,0.00013515,0.00012376,-0.00000357,-0.00005947,-0.000
 00416,0.00009247,-0.00005393,0.00004653,0.00002952,0.00002599,0.000018
 25,0.00002732,0.00001853,-0.00001589,0.00002202,-0.00000680,-0.0000116
 1,-0.00001855,-0.00000418,-0.00000044,0.00001548,-0.00001674,-0.000003
 11,-0.00000103,0.00000168,0.00000453,0.00000076,-0.04263228,0.01825638
 ,-0.07452350,-0.00736234,0.01831421,-0.02257885,-0.01240242,0.01845635
 ,-0.01764230,0.00004910,-0.00001879,-0.00005704,-0.00001579,-0.0000079
 5,0.00000887,-0.00002178,0.00000462,0.00003856,-0.00001004,0.00004698,
 -0.00000865,-0.04361252,-0.11782037,0.20886447,0.00010934,0.00014029,0
 .00016701,0.00007518,-0.00009550,-0.00002649,-0.00017871,-0.00007045,-
 0.00004580,0.00011801,0.00015729,-0.00010163,0.00202018,0.00068913,0.0
 0010139,-0.00080559,-0.00058325,-0.00057675,0.00032684,0.00009364,-0.0
 0016348,0.00017987,-0.00026279,-0.00049842,-0.00025309,-0.00154630,-0.
 00043243,-0.00024268,0.00058516,-0.00018929,0.00060886,0.00110837,0.00
 042150,0.00021088,0.00047522,-0.00014368,0.00003448,-0.00009243,-0.000
 03057,-0.00024088,0.00014642,0.00007707,0.00007343,-0.00001514,0.00007
 741,-0.00000966,0.00001683,-0.00003197,-0.00000185,0.00000692,-0.00003
 280,0.00000841,-0.00000670,0.00000582,-0.00003822,-0.00001694,-0.00000
 463,-0.00000553,0.00003174,0.00000683,0.00886144,-0.00335051,0.0005038
 0,0.00284474,0.00159082,-0.00258861,0.00327931,0.00083647,0.00063466,0
 .00006075,-0.00004884,-0.00007252,-0.00010317,0.00002047,-0.00001931,0
 .00006516,0.00000636,-0.00004939,-0.00001748,0.00005097,0.00012910,-0.
 12469159,-0.02447934,0.09755055,0.12316210,-0.00013821,-0.00004627,0.0
 0026894,0.00004968,-0.00003674,-0.00007402,-0.00010403,-0.00014446,-0.
 00016506,0.00014199,0.00011150,-0.00004638,-0.00002535,-0.00018298,-0.
 00118924,0.00021798,-0.00098717,0.00015224,0.00028511,-0.00023510,0.00
 031969,-0.00023078,0.00011231,0.00042620,0.00023133,-0.00013185,-0.000
 23826,-0.00000159,0.00002850,0.00000770,-0.00000759,-0.00057829,0.0002
 0329,-0.00006638,-0.00010912,0.00019880,0.00004670,-0.00001722,-0.0000
 8685,0.00006940,0.00000781,-0.00005339,-0.00003762,-0.00009966,-0.0000
 9048,-0.00001038,0.00002667,-0.00002017,0.00003407,0.00005825,0.000044
 43,0.00000108,-0.00000686,-0.00002217,0.00004711,0.00000128,0.00000134
 ,-0.00001874,0.00001427,-0.00000087,-0.02916230,-0.00591777,0.02205220
 ,0.00370619,-0.00414087,0.00407386,0.00136695,0.00197921,-0.00238465,0
 .00002262,-0.00000358,0.00006239,0.00001961,0.00003433,-0.00001073,0.0
 0004111,-0.00000520,-0.00006430,-0.00000714,-0.00003455,0.00003463,-0.
 03179805,-0.07210451,0.05221370,0.08131215,0.53952969,-0.00028708,0.00
 000529,-0.00044432,0.00004055,0.00007870,0.00012186,0.00011725,0.00003
 432,0.00026237,-0.00008701,-0.00007205,-0.00009018,-0.00247433,-0.0011
 2597,0.00235210,0.00018038,0.00054194,0.00019641,-0.00022554,0.0001244
 5,0.00021922,-0.00023580,0.00008077,0.00040598,-0.00031838,-0.00043957
 ,0.00018429,-0.00000170,0.00013067,-0.00003331,0.00036747,0.00053137,-
 0.00024896,0.00007819,0.00024055,-0.00028291,-0.00003962,-0.00000978,0
 .00009115,-0.00011471,0.00003360,0.00006981,0.00002928,0.00006651,0.00
 009912,0.00001551,-0.00002009,0.00001889,-0.00002929,-0.00003746,-0.00
 004964,-0.00000043,0.00000150,0.00002536,-0.00004645,-0.00000561,-0.00
 000081,0.00001179,-0.00000266,0.00000246,0.02633282,0.01007194,-0.0306
 4211,-0.00449783,0.00553002,-0.00242009,0.00196045,-0.00242486,0.00300
 360,0.00002680,-0.00001717,-0.00009857,-0.00004478,-0.00002004,0.00001
 021,-0.00002496,0.00000617,0.00005539,0.00000153,0.00004466,0.00001346
 ,0.06505877,0.02332394,-0.10396652,-0.09368462,0.09703076,0.20670725,-
 0.00010131,-0.00012261,0.00001057,0.00000712,0.00000953,-0.00002586,-0
 .00002599,-0.00006278,-0.00001306,0.00001207,0.00001800,-0.00001079,-0
 .00051406,0.00004124,-0.00038078,0.00033609,0.00014965,0.00023917,-0.0
 0014852,-0.00000582,-0.00012961,0.00019722,-0.00018730,-0.00018196,0.0
 0007702,0.00070311,0.00003419,-0.00000805,-0.00016980,0.00000482,-0.00
 006909,-0.00015834,-0.00000088,-0.00008424,-0.00017156,-0.00000065,0.0
 0000375,0.00004802,0.00001079,0.00008521,-0.00009465,-0.00002059,0.000
 00809,0.00008759,-0.00002897,0.00000132,-0.00002806,0.00001911,-0.0000
 2094,-0.00004952,0.00001577,-0.00000403,0.00001133,-0.00000390,0.00000
 737,0.00001361,0.00000340,0.00001792,-0.00003665,-0.00000649,-0.001819
 13,0.00119177,0.00061660,0.00022958,-0.00024471,0.00005826,0.00029759,
 0.00012067,-0.00078224,-0.00008603,0.00003290,0.00006102,0.00007683,-0
 .00003687,0.00001813,-0.00005996,0.00001078,0.00005537,0.00003309,-0.0
 0000343,-0.00014876,-0.01415245,-0.03228284,0.00617582,-0.01545050,-0.
 02598493,0.00789173,0.03115405,-0.00006152,0.00003313,0.00008185,0.000
 00389,0.00006769,0.00002778,0.00006890,0.00002825,0.00003319,-0.000009
 70,-0.00003051,-0.00001094,-0.00040239,0.00033650,-0.00029604,0.000063
 40,0.00000720,-0.00011053,-0.00002650,0.00007906,0.00014092,-0.0001336
 4,-0.00002207,0.00023157,-0.00014428,-0.00042788,0.00003533,0.00000616
 ,0.00009056,-0.00000452,0.00021910,0.00018728,0.00003520,0.00008081,0.
 00011401,-0.00009175,-0.00001273,-0.00001060,0.00002575,-0.00007106,0.
 00004090,0.00003141,0.00003548,0.00003921,0.00005589,0.00000304,-0.000
 00914,0.00000077,-0.00001583,-0.00002371,-0.00002692,0.00000338,0.0000
 0229,0.00001177,-0.00003331,-0.00000482,-0.00000362,0.00000698,0.00000
 036,0.00000258,0.00000528,-0.00281488,0.00116299,0.00008778,0.00026476
 ,0.00000882,-0.00004393,-0.00050822,0.00024873,0.00000583,-0.00003681,
 -0.00005194,-0.00005129,-0.00000280,-0.00000529,0.00000709,0.00001053,
 0.00001570,0.00001845,0.00005024,0.00003173,-0.00011103,-0.00259137,-0
 .00067295,-0.05670002,-0.45712162,-0.13370192,0.05720166,0.46225245,0.
 00010978,-0.00003790,-0.00006420,-0.00003117,-0.00002820,-0.00000779,0
 .00006803,0.00008894,-0.00004373,-0.00003884,-0.00002676,0.00004348,-0
 .00000368,-0.00055123,-0.00011693,0.00000641,-0.00001277,-0.00003850,-
 0.00001128,-0.00005415,0.00003591,-0.00024016,0.00018664,0.00008914,-0
 .00001278,0.00026160,-0.00001055,0.00003571,-0.00002320,0.00000682,-0.
 00020166,-0.00001729,0.00003135,-0.00005444,-0.00007354,0.00010212,0.0
 0001038,-0.00000178,-0.00003906,0.00004540,-0.00002697,-0.00002964,-0.
 00000525,-0.00001460,-0.00005425,-0.00000786,0.00001618,-0.00001138,0.
 00000604,0.00000331,0.00002789,0.00000107,-0.00000087,-0.00001577,0.00
 001818,0.00000349,0.00000113,0.00000015,-0.00000478,-0.00000403,0.0054
 4366,0.00276349,-0.00058734,-0.00071828,0.00055543,-0.00109642,-0.0010
 0473,-0.00031869,-0.00046636,-0.00006798,0.00002473,0.00009949,0.00002
 575,0.00000561,-0.00001135,0.00002467,-0.00001232,-0.00004593,0.000006
 27,-0.00003045,-0.00001406,0.01105952,0.03717524,-0.00295807,-0.000982
 74,-0.17264361,-0.07556151,-0.01348019,0.13279447,0.08073957\\-0.00000
 043,0.00000007,0.00000635,-0.00000059,-0.00000033,0.00000832,-0.000001
 09,-0.00000183,0.00000650,0.00000024,0.00000142,0.00000736,0.00000041,
 0.00000084,0.00000373,-0.00000048,-0.00000046,0.00000266,-0.00000057,-
 0.00000070,0.00000472,-0.00000136,-0.00000267,0.00000235,0.00000020,0.
 00000045,0.00000023,0.00000119,0.00000273,0.00000071,0.00000013,0.0000
 0050,-0.00000167,-0.00000034,-0.00000079,-0.00000030,-0.00000130,-0.00
 000293,-0.00000079,-0.00000047,-0.00000075,0.00000171,0.00000033,0.000
 00031,-0.00000277,0.00000125,0.00000243,-0.00000228,-0.00000028,-0.000
 00098,-0.00000285,-0.00000125,-0.00000310,-0.00000328,0.00000017,-0.00
 000016,-0.00000452,-0.00000031,-0.00000070,-0.00000075,0.00000045,0.00
 000229,0.00000131,0.00000160,0.00000367,0.00000276,0.00000143,0.000002
 99,-0.00000006,0.00000034,0.00000004,-0.00000572,0.00000081,0.00000086
 ,-0.00000744,-0.00000057,-0.00000203,-0.00000632,0.00000083,0.00000109
 ,-0.00000579,0.00000050,0.00000057,0.00000029,-0.00000053,-0.00000161,
 -0.00000139,-0.00000033,-0.00000123,-0.00000308\\\@
 Job cpu time:  0 days 11 hours 25 minutes  9.3 seconds.
 File lengths (MBytes):  RWF=  71576 Int=      0 D2E=      0 Chk=     32 Scr=      1
 Normal termination of Gaussian 09 at Sat Feb  8 11:09:53 2014.
