 Entering Gaussian System, Link 0=g09
 Initial command:
 /usr/caen/gaussian-09revc/g09/l1.exe /scratch/avioli_flux/hetanjin/scratch/Gau-14158.inp -scrdir=/scratch/avioli_flux/hetanjin/scratch/
 Entering Link 1 = /usr/caen/gaussian-09revc/g09/l1.exe PID=     14159.
  
 Copyright (c) 1988,1990,1992,1993,1995,1998,2003,2009,2011,
            Gaussian, Inc.  All Rights Reserved.
  
 This is part of the Gaussian(R) 09 program.  It is based on
 the Gaussian(R) 03 system (copyright 2003, Gaussian, Inc.),
 the Gaussian(R) 98 system (copyright 1998, Gaussian, Inc.),
 the Gaussian(R) 94 system (copyright 1995, Gaussian, Inc.),
 the Gaussian 92(TM) system (copyright 1992, Gaussian, Inc.),
 the Gaussian 90(TM) system (copyright 1990, Gaussian, Inc.),
 the Gaussian 88(TM) system (copyright 1988, Gaussian, Inc.),
 the Gaussian 86(TM) system (copyright 1986, Carnegie Mellon
 University), and the Gaussian 82(TM) system (copyright 1983,
 Carnegie Mellon University). Gaussian is a federally registered
 trademark of Gaussian, Inc.
  
 This software contains proprietary and confidential information,
 including trade secrets, belonging to Gaussian, Inc.
  
 This software is provided under written license and may be
 used, copied, transmitted, or stored only in accord with that
 written license.
  
 The following legend is applicable only to US Government
 contracts under FAR:
  
                    RESTRICTED RIGHTS LEGEND
  
 Use, reproduction and disclosure by the US Government is
 subject to restrictions as set forth in subparagraphs (a)
 and (c) of the Commercial Computer Software - Restricted
 Rights clause in FAR 52.227-19.
  
 Gaussian, Inc.
 340 Quinnipiac St., Bldg. 40, Wallingford CT 06492
  
  
 ---------------------------------------------------------------
 Warning -- This program may not be used in any manner that
 competes with the business of Gaussian, Inc. or will provide
 assistance to any competitor of Gaussian, Inc.  The licensee
 of this program is prohibited from giving any competitor of
 Gaussian, Inc. access to this program.  By using this program,
 the user acknowledges that Gaussian, Inc. is engaged in the
 business of creating and licensing software in the field of
 computational chemistry and represents and warrants to the
 licensee that it is not a competitor of Gaussian, Inc. and that
 it will not use this program in any manner prohibited above.
 ---------------------------------------------------------------
  

 Cite this work as:
 Gaussian 09, Revision C.01,
 M. J. Frisch, G. W. Trucks, H. B. Schlegel, G. E. Scuseria, 
 M. A. Robb, J. R. Cheeseman, G. Scalmani, V. Barone, B. Mennucci, 
 G. A. Petersson, H. Nakatsuji, M. Caricato, X. Li, H. P. Hratchian, 
 A. F. Izmaylov, J. Bloino, G. Zheng, J. L. Sonnenberg, M. Hada, 
 M. Ehara, K. Toyota, R. Fukuda, J. Hasegawa, M. Ishida, T. Nakajima, 
 Y. Honda, O. Kitao, H. Nakai, T. Vreven, J. A. Montgomery, Jr., 
 J. E. Peralta, F. Ogliaro, M. Bearpark, J. J. Heyd, E. Brothers, 
 K. N. Kudin, V. N. Staroverov, T. Keith, R. Kobayashi, J. Normand, 
 K. Raghavachari, A. Rendell, J. C. Burant, S. S. Iyengar, J. Tomasi, 
 M. Cossi, N. Rega, J. M. Millam, M. Klene, J. E. Knox, J. B. Cross, 
 V. Bakken, C. Adamo, J. Jaramillo, R. Gomperts, R. E. Stratmann, 
 O. Yazyev, A. J. Austin, R. Cammi, C. Pomelli, J. W. Ochterski, 
 R. L. Martin, K. Morokuma, V. G. Zakrzewski, G. A. Voth, 
 P. Salvador, J. J. Dannenberg, S. Dapprich, A. D. Daniels, 
 O. Farkas, J. B. Foresman, J. V. Ortiz, J. Cioslowski, 
 and D. J. Fox, Gaussian, Inc., Wallingford CT, 2010.
 
 ******************************************
 Gaussian 09:  EM64L-G09RevC.01 23-Sep-2011
                 7-Feb-2014 
 ******************************************
 %mem=30GB
 %nprocshared=8
 Will use up to    8 processors via shared memory.
 %chk=C9H18O_1_26.chk
 -------------------------------------------------
 #p B3LYP/6-311++G(d,p) guess=mix stable=(opt,xqc)
 -------------------------------------------------
 1/38=1/1;
 2/12=2,17=6,18=5,40=1/2;
 3/5=4,6=6,7=1111,11=2,16=1,25=1,30=1,74=-5/1,2,3;
 4/13=-1/1;
 5/5=2,38=5/2;
 6/7=2,8=2,9=2,10=2,28=1/1;
 8/6=1,10=90,11=11/1;
 9/8=-3,42=1,46=1/14;
 5/5=2,8=3,13=1,17=40,38=5/2,8(-2);
 6/7=2,8=2,9=2,10=2,28=1/1;
 99/5=1,9=1/99;
 Leave Link    1 at Fri Feb  7 21:48:05 2014, MaxMem= 4026531840 cpu:       1.4
 (Enter /usr/caen/gaussian-09revc/g09/l101.exe)
 ----------------------------------------
 C9H18O_1_26 using cbs-qb3 to cal. energy
 ----------------------------------------
 Charge =  0 Multiplicity = 1
 Symbolic Z-Matrix:
 C                     3.40804  -1.32664  -0.02165 
 H                     3.16974  -2.34685  -0.33305 
 H                     3.55145  -1.3229    1.06164 
 H                     4.35809  -1.03852  -0.47557 
 C                     2.2849   -0.37107  -0.42771 
 H                     2.14293  -0.41231  -1.51898 
 C                     0.92902  -0.75726   0.22145 
 H                     0.80644  -1.83863   0.09212 
 H                     0.99395  -0.58919   1.30354 
 C                    -0.31235  -0.0508   -0.34168 
 H                    -0.34323  -0.19026  -1.43032 
 H                    -0.24251   1.02759  -0.17169 
 C                    -1.61403  -0.5842    0.27118 
 H                    -1.60045  -0.41693   1.35692 
 H                    -1.64285  -1.67246   0.13319 
 C                    -2.90995   0.0151   -0.30788 
 H                    -2.88214  -0.12462  -1.39755 
 C                    -4.135    -0.73905   0.22842 
 H                    -4.21056  -0.63709   1.31668 
 H                    -5.06114  -0.35063  -0.20522 
 H                    -4.07944  -1.80707  -0.00233 
 C                     2.63067   1.07264  -0.1211 
 H                     1.89604   1.8237   -0.48182 
 C                    -3.04031   1.51948  -0.02808 
 H                    -3.9765    1.91183  -0.43583 
 H                    -3.04135   1.71507   1.05022 
 H                    -2.22448   2.09584  -0.47122 
 O                     3.6175    1.43804   0.47145 
 
 NAtoms=     28 NQM=        0 NQMF=       0 NMMI=     28 NMMIF=      0
                NMic=       0 NMicF=      0.
                    Isotopes and Nuclear Properties:
 (Nuclear quadrupole moments (NQMom) in fm**2, nuclear magnetic moments (NMagM)
  in nuclear magnetons)

  Atom         1           2           3           4           5           6           7           8           9          10
 IAtWgt=          12           1           1           1          12           1          12           1           1          12
 AtmWgt=  12.0000000   1.0078250   1.0078250   1.0078250  12.0000000   1.0078250  12.0000000   1.0078250   1.0078250  12.0000000
 NucSpn=           0           1           1           1           0           1           0           1           1           0
 AtZEff=   0.0000000   0.0000000   0.0000000   0.0000000   0.0000000   0.0000000   0.0000000   0.0000000   0.0000000   0.0000000
 NQMom=    0.0000000   0.0000000   0.0000000   0.0000000   0.0000000   0.0000000   0.0000000   0.0000000   0.0000000   0.0000000
 NMagM=    0.0000000   2.7928460   2.7928460   2.7928460   0.0000000   2.7928460   0.0000000   2.7928460   2.7928460   0.0000000

  Atom        11          12          13          14          15          16          17          18          19          20
 IAtWgt=           1           1          12           1           1          12           1          12           1           1
 AtmWgt=   1.0078250   1.0078250  12.0000000   1.0078250   1.0078250  12.0000000   1.0078250  12.0000000   1.0078250   1.0078250
 NucSpn=           1           1           0           1           1           0           1           0           1           1
 AtZEff=   0.0000000   0.0000000   0.0000000   0.0000000   0.0000000   0.0000000   0.0000000   0.0000000   0.0000000   0.0000000
 NQMom=    0.0000000   0.0000000   0.0000000   0.0000000   0.0000000   0.0000000   0.0000000   0.0000000   0.0000000   0.0000000
 NMagM=    2.7928460   2.7928460   0.0000000   2.7928460   2.7928460   0.0000000   2.7928460   0.0000000   2.7928460   2.7928460

  Atom        21          22          23          24          25          26          27          28
 IAtWgt=           1          12           1          12           1           1           1          16
 AtmWgt=   1.0078250  12.0000000   1.0078250  12.0000000   1.0078250   1.0078250   1.0078250  15.9949146
 NucSpn=           1           0           1           0           1           1           1           0
 AtZEff=   0.0000000   0.0000000   0.0000000   0.0000000   0.0000000   0.0000000   0.0000000   0.0000000
 NQMom=    0.0000000   0.0000000   0.0000000   0.0000000   0.0000000   0.0000000   0.0000000   0.0000000
 NMagM=    2.7928460   0.0000000   2.7928460   0.0000000   2.7928460   2.7928460   2.7928460   0.0000000
 Leave Link  101 at Fri Feb  7 21:48:06 2014, MaxMem= 4026531840 cpu:       0.6
 (Enter /usr/caen/gaussian-09revc/g09/l202.exe)
                          Input orientation:                          
 ---------------------------------------------------------------------
 Center     Atomic      Atomic             Coordinates (Angstroms)
 Number     Number       Type             X           Y           Z
 ---------------------------------------------------------------------
      1          6           0        3.408041   -1.326638   -0.021652
      2          1           0        3.169744   -2.346851   -0.333051
      3          1           0        3.551445   -1.322896    1.061645
      4          1           0        4.358087   -1.038517   -0.475568
      5          6           0        2.284901   -0.371074   -0.427714
      6          1           0        2.142926   -0.412310   -1.518975
      7          6           0        0.929018   -0.757264    0.221446
      8          1           0        0.806442   -1.838626    0.092115
      9          1           0        0.993953   -0.589189    1.303536
     10          6           0       -0.312354   -0.050802   -0.341676
     11          1           0       -0.343231   -0.190257   -1.430318
     12          1           0       -0.242511    1.027589   -0.171692
     13          6           0       -1.614031   -0.584204    0.271176
     14          1           0       -1.600452   -0.416927    1.356923
     15          1           0       -1.642853   -1.672461    0.133185
     16          6           0       -2.909947    0.015100   -0.307876
     17          1           0       -2.882142   -0.124619   -1.397546
     18          6           0       -4.134998   -0.739052    0.228421
     19          1           0       -4.210559   -0.637093    1.316683
     20          1           0       -5.061144   -0.350634   -0.205222
     21          1           0       -4.079439   -1.807065   -0.002333
     22          6           0        2.630674    1.072635   -0.121100
     23          1           0        1.896037    1.823696   -0.481820
     24          6           0       -3.040306    1.519477   -0.028084
     25          1           0       -3.976499    1.911831   -0.435827
     26          1           0       -3.041348    1.715074    1.050223
     27          1           0       -2.224479    2.095836   -0.471219
     28          8           0        3.617504    1.438044    0.471453
 ---------------------------------------------------------------------
                    Distance matrix (angstroms):
                    1          2          3          4          5
     1  C    0.000000
     2  H    1.092973   0.000000
     3  H    1.092754   1.771823   0.000000
     4  H    1.091623   1.773191   1.759138   0.000000
     5  C    1.529520   2.166934   2.174463   2.178502   0.000000
     6  H    2.162981   2.490626   3.077774   2.527404   1.101230
     7  C    2.555159   2.802696   2.811227   3.510477   1.552086
     8  H    2.653939   2.454436   2.956519   3.684647   2.147038
     9  H    2.850925   3.240657   2.671629   3.832037   2.170564
    10  C    3.946075   4.170962   4.303077   4.775618   2.618341
    11  H    4.165062   4.265664   4.760384   4.871702   2.818685
    12  H    4.346427   4.801705   4.630335   5.052389   2.899934
    13  C    5.085092   5.133860   5.277561   6.035745   3.966805
    14  H    5.273807   5.416215   5.239276   6.264869   4.275862
    15  H    5.065086   4.881933   5.288191   6.064961   4.175580
    16  C    6.465227   6.522430   6.739095   7.345920   5.210560
    17  H    6.550140   6.534278   6.991032   7.355690   5.263045
    18  C    7.570022   7.500635   7.753486   8.527472   6.463824
    19  H    7.765931   7.753307   7.796414   8.763276   6.730876
    20  H    8.527214   8.470463   8.759391   9.448184   7.349442
    21  H    7.502902   7.276771   7.719900   8.485662   6.538183
    22  C    2.524025   3.468199   2.825823   2.750739   1.515872
    23  H    3.524559   4.363247   3.876042   3.775446   2.229609
    24  C    7.048517   7.321627   7.260701   7.840905   5.664955
    25  H    8.074073   8.319599   8.329215   8.841462   6.664597
    26  H    7.210794   7.549195   7.259085   8.041265   5.908066
    27  H    6.606112   6.989578   6.884671   7.290704   5.140238
    28  O    2.816113   3.895272   2.824089   2.752938   2.420174
                    6          7          8          9         10
     6  H    0.000000
     7  C    2.149798   0.000000
     8  H    2.533018   1.095945   0.000000
     9  H    3.052539   1.096989   1.750370   0.000000
    10  C    2.746838   1.535317   2.153182   2.168645   0.000000
    11  H    2.497628   2.160657   2.521244   3.069392   1.097972
    12  H    3.094962   2.170884   3.063509   2.513784   1.093938
    13  C    4.165203   2.549416   2.732092   2.804884   1.534428
    14  H    4.720560   2.793449   3.068242   2.600666   2.162980
    15  H    4.318534   2.731281   2.455269   3.081549   2.150697
    16  C    5.213537   3.951504   4.172270   4.266409   2.598649
    17  H    5.034761   4.188832   4.331577   4.747187   2.779230
    18  C    6.524759   5.064054   5.064136   5.242563   3.925724
    19  H    6.961196   5.256352   5.302221   5.204749   4.276669
    20  H    7.323140   6.019089   6.060618   6.244795   4.760202
    21  H    6.554645   5.122187   4.886896   5.378459   4.170197
    22  C    2.096906   2.522202   3.442198   2.733149   3.157876
    23  H    2.477169   2.844479   3.863835   3.134209   2.900064
    24  C    5.728914   4.582723   5.107717   4.742882   3.163201
    25  H    6.634923   5.623182   6.100916   5.829741   4.157734
    26  H    6.164677   4.750067   5.324682   4.653757   3.535974
    27  H    5.144202   4.308655   4.998382   4.551639   2.877683
    28  O    3.091924   3.479919   4.333882   3.418341   4.280377
                   11         12         13         14         15
    11  H    0.000000
    12  H    1.754261   0.000000
    13  C    2.159909   2.162192   0.000000
    14  H    3.066055   2.503456   1.098641   0.000000
    15  H    2.516046   3.056825   1.097349   1.753767   0.000000
    16  C    2.808928   2.856378   1.540735   2.161708   2.155904
    17  H    2.539971   3.130168   2.145683   3.052093   2.504953
    18  C    4.174936   4.293316   2.526080   2.793064   2.662914
    19  H    4.764651   4.553222   2.799614   2.619685   3.010941
    20  H    4.877016   5.011970   3.487707   3.797510   3.680551
    21  H    4.314216   4.773464   2.765580   3.150466   2.444061
    22  C    3.486124   2.873983   4.573458   4.722899   5.085592
    23  H    3.157527   2.302901   4.322680   4.541674   5.012493
    24  C    3.487644   2.844334   2.559158   2.782280   3.488173
    25  H    4.313748   3.846338   3.508746   3.779241   4.314722
    26  H    4.130763   3.130367   2.816172   2.591462   3.777849
    27  H    3.112103   2.271358   2.847176   3.169462   3.860525
    28  O    4.685672   3.934695   5.612357   5.608212   6.120541
                   16         17         18         19         20
    16  C    0.000000
    17  H    1.098943   0.000000
    18  C    1.535288   2.142649   0.000000
    19  H    2.180857   3.065022   1.095636   0.000000
    20  H    2.184479   2.494147   1.093920   1.766847   0.000000
    21  H    2.186631   2.492140   1.094069   1.768002   1.768078
    22  C    5.643735   5.783932   7.012752   7.196726   7.822841
    23  H    5.137972   5.240752   6.591320   6.824999   7.294284
    24  C    1.535717   2.145575   2.522915   2.797979   2.759072
    25  H    2.179792   2.503927   2.737431   3.102110   2.519599
    26  H    2.179819   3.066169   2.809655   2.640217   3.150058
    27  H    2.196818   2.494198   3.489437   3.822304   3.755348
    28  O    6.726049   6.941215   8.056060   8.142431   8.886855
                   21         22         23         24         25
    21  H    0.000000
    22  C    7.302903   0.000000
    23  H    7.008470   1.110812   0.000000
    24  C    3.485160   5.689318   4.966478   0.000000
    25  H    3.745491   6.667686   5.873377   1.093917   0.000000
    26  H    3.819813   5.827226   5.170757   1.095904   1.766795
    27  H    4.346650   4.974137   4.129507   1.092763   1.762011
    28  O    8.366489   1.207674   2.005220   6.677020   7.662670
                   26         27         28
    26  H    0.000000
    27  H    1.768344   0.000000
    28  O    6.689696   5.953997   0.000000
 Stoichiometry    C9H18O
 Framework group  C1[X(C9H18O)]
 Deg. of freedom    78
 Full point group                 C1      NOp   1
 Largest Abelian subgroup         C1      NOp   1
 Largest concise Abelian subgroup C1      NOp   1
                         Standard orientation:                         
 ---------------------------------------------------------------------
 Center     Atomic      Atomic             Coordinates (Angstroms)
 Number     Number       Type             X           Y           Z
 ---------------------------------------------------------------------
      1          6           0       -3.408041   -1.326638    0.021652
      2          1           0       -3.169744   -2.346851    0.333051
      3          1           0       -3.551445   -1.322896   -1.061645
      4          1           0       -4.358087   -1.038517    0.475568
      5          6           0       -2.284901   -0.371074    0.427714
      6          1           0       -2.142926   -0.412310    1.518975
      7          6           0       -0.929018   -0.757264   -0.221446
      8          1           0       -0.806442   -1.838626   -0.092115
      9          1           0       -0.993953   -0.589189   -1.303536
     10          6           0        0.312354   -0.050802    0.341676
     11          1           0        0.343231   -0.190257    1.430318
     12          1           0        0.242511    1.027589    0.171692
     13          6           0        1.614031   -0.584204   -0.271176
     14          1           0        1.600452   -0.416927   -1.356923
     15          1           0        1.642853   -1.672461   -0.133185
     16          6           0        2.909947    0.015100    0.307876
     17          1           0        2.882142   -0.124619    1.397546
     18          6           0        4.134998   -0.739052   -0.228421
     19          1           0        4.210559   -0.637093   -1.316683
     20          1           0        5.061144   -0.350634    0.205222
     21          1           0        4.079439   -1.807065    0.002333
     22          6           0       -2.630674    1.072635    0.121100
     23          1           0       -1.896037    1.823696    0.481820
     24          6           0        3.040306    1.519477    0.028084
     25          1           0        3.976499    1.911831    0.435827
     26          1           0        3.041348    1.715074   -1.050223
     27          1           0        2.224479    2.095836    0.471219
     28          8           0       -3.617504    1.438044   -0.471453
 ---------------------------------------------------------------------
 Rotational constants (GHZ):      2.8923387      0.4448295      0.4011481
 Leave Link  202 at Fri Feb  7 21:48:06 2014, MaxMem= 4026531840 cpu:       0.6
 (Enter /usr/caen/gaussian-09revc/g09/l301.exe)
 Standard basis: 6-311++G(d,p) (5D, 7F)
 Ernie: Thresh=  0.10000D-02 Tol=  0.10000D-05 Strict=F.
 There are   346 symmetry adapted basis functions of A   symmetry.
 Integral buffers will be    131072 words long.
 Raffenetti 2 integral format.
 Two-electron integral symmetry is turned on.
   346 basis functions,   522 primitive gaussians,   356 cartesian basis functions
    40 alpha electrons       40 beta electrons
       nuclear repulsion energy       532.7440541466 Hartrees.
 IExCor=  402 DFT=T Ex+Corr=B3LYP ExCW=0 ScaHFX=  0.200000
 ScaDFX=  0.800000  0.720000  1.000000  0.810000 ScalE2=  1.000000  1.000000
 IRadAn=      0 IRanWt=     -1 IRanGd=            0 ICorTp=0
 NAtoms=   28 NActive=   28 NUniq=   28 SFac= 1.00D+00 NAtFMM=   60 NAOKFM=F Big=F
 Leave Link  301 at Fri Feb  7 21:48:06 2014, MaxMem= 4026531840 cpu:       0.8
 (Enter /usr/caen/gaussian-09revc/g09/l302.exe)
 NPDir=0 NMtPBC=     1 NCelOv=     1 NCel=       1 NClECP=     1 NCelD=      1
         NCelK=      1 NCelE2=     1 NClLst=     1 CellRange=     0.0.
 One-electron integrals computed using PRISM.
 NBasis=   346 RedAO= T  NBF=   346
 NBsUse=   346 1.00D-06 NBFU=   346
 Precomputing XC quadrature grid using
 IXCGrd= 2 IRadAn=           0 IRanWt=          -1 IRanGd=           0 AccXCQ= 0.00D+00.
 NRdTot=    1828 NPtTot=      233178 NUsed=      246351 NTot=      246383
 NSgBfM=   356   356   356   356   356 NAtAll=    28    28.
 Leave Link  302 at Fri Feb  7 21:48:09 2014, MaxMem= 4026531840 cpu:      17.0
 (Enter /usr/caen/gaussian-09revc/g09/l303.exe)
 DipDrv:  MaxL=1.
 Leave Link  303 at Fri Feb  7 21:48:10 2014, MaxMem= 4026531840 cpu:       1.3
 (Enter /usr/caen/gaussian-09revc/g09/l401.exe)
 Harris functional with IExCor=  402 diagonalized for initial guess.
 ExpMin= 3.60D-02 ExpMax= 8.59D+03 ExpMxC= 1.30D+03 IAcc=3 IRadAn=         5 AccDes= 0.00D+00
 HarFok:  IExCor=  402 AccDes= 0.00D+00 IRadAn=         5 IDoV= 1
 ScaDFX=  1.000000  1.000000  1.000000  1.000000
 FoFCou: FMM=F IPFlag=           0 FMFlag=      100000 FMFlg1=           0
         NFxFlg=           0 DoJE=T BraDBF=F KetDBF=T FulRan=T
         Omega=  0.000000  0.000000  1.000000  0.000000  0.000000 ICntrl=     500 IOpCl=  0
         NMat0=    1 NMatS0=    1 NMatT0=    0 NMatD0=    1 NMtDS0=    0 NMtDT0=    0
         I1Cent=           4 NGrid=           0.
 Petite list used in FoFCou.
 Harris En= -429.231870051955    
 Mixing orbitals, IMix= 1 IMixAn=  0 NRI=1 NE=   40 Coef=  7.07106781D-01  7.07106781D-01
 Initial guess orbital symmetries:
       Occupied  (A) (A) (A) (A) (A) (A) (A) (A) (A) (A) (A) (A)
                 (A) (A) (A) (A) (A) (A) (A) (A) (A) (A) (A) (A)
                 (A) (A) (A) (A) (A) (A) (A) (A) (A) (A) (A) (A)
                 (A) (A) (A) (A)
       Virtual   (A) (A) (A) (A) (A) (A) (A) (A) (A) (A) (A) (A)
                 (A) (A) (A) (A) (A) (A) (A) (A) (A) (A) (A) (A)
                 (A) (A) (A) (A) (A) (A) (A) (A) (A) (A) (A) (A)
                 (A) (A) (A) (A) (A) (A) (A) (A) (A) (A) (A) (A)
                 (A) (A) (A) (A) (A) (A) (A) (A) (A) (A) (A) (A)
                 (A) (A) (A) (A) (A) (A) (A) (A) (A) (A) (A) (A)
                 (A) (A) (A) (A) (A) (A) (A) (A) (A) (A) (A) (A)
                 (A) (A) (A) (A) (A) (A) (A) (A) (A) (A) (A) (A)
                 (A) (A) (A) (A) (A) (A) (A) (A) (A) (A) (A) (A)
                 (A) (A) (A) (A) (A) (A) (A) (A) (A) (A) (A) (A)
                 (A) (A) (A) (A) (A) (A) (A) (A) (A) (A) (A) (A)
                 (A) (A) (A) (A) (A) (A) (A) (A) (A) (A) (A) (A)
                 (A) (A) (A) (A) (A) (A) (A) (A) (A) (A) (A) (A)
                 (A) (A) (A) (A) (A) (A) (A) (A) (A) (A) (A) (A)
                 (A) (A) (A) (A) (A) (A) (A) (A) (A) (A) (A) (A)
                 (A) (A) (A) (A) (A) (A) (A) (A) (A) (A) (A) (A)
                 (A) (A) (A) (A) (A) (A) (A) (A) (A) (A) (A) (A)
                 (A) (A) (A) (A) (A) (A) (A) (A) (A) (A) (A) (A)
                 (A) (A) (A) (A) (A) (A) (A) (A) (A) (A) (A) (A)
                 (A) (A) (A) (A) (A) (A) (A) (A) (A) (A) (A) (A)
                 (A) (A) (A) (A) (A) (A) (A) (A) (A) (A) (A) (A)
                 (A) (A) (A) (A) (A) (A) (A) (A) (A) (A) (A) (A)
                 (A) (A) (A) (A) (A) (A) (A) (A) (A) (A) (A) (A)
                 (A) (A) (A) (A) (A) (A) (A) (A) (A) (A) (A) (A)
                 (A) (A) (A) (A) (A) (A) (A) (A) (A) (A) (A) (A)
                 (A) (A) (A) (A) (A) (A)
 The electronic state of the initial guess is 1-A.
 Leave Link  401 at Fri Feb  7 21:48:14 2014, MaxMem= 4026531840 cpu:      26.3
 (Enter /usr/caen/gaussian-09revc/g09/l502.exe)
 Closed shell SCF:
 Requested convergence on RMS density matrix=1.00D-08 within 128 cycles.
 Requested convergence on MAX density matrix=1.00D-06.
 Requested convergence on             energy=1.00D-06.
 No special actions if energy rises.
 Using DIIS extrapolation, IDIIS=  1040.
 Integral symmetry usage will be decided dynamically.
       246086 words used for storage of precomputed grid.
 Keep R1 ints in memory in canonical form, NReq=2042478289.
 IEnd=      649976 IEndB=      649976 NGot=  4026531840 MDV=  2006946738
 LenX=  2006946738 LenY=  2006819561
 Symmetry not used in FoFDir.
 MinBra= 0 MaxBra= 2 Meth= 1.
 IRaf=       0 NMat=   1 IRICut=       1 DoRegI=T DoRafI=F ISym2E= 0 JSym2E=0.

 Cycle   1  Pass 1  IDiag  1:
 E= -428.622860194056    
 DIIS: error= 3.61D-02 at cycle   1 NSaved=   1.
 NSaved= 1 IEnMin= 1 EnMin= -428.622860194056     IErMin= 1 ErrMin= 3.61D-02
 ErrMax= 3.61D-02 EMaxC= 1.00D-01 BMatC= 3.58D-01 BMatP= 3.58D-01
 IDIUse=3 WtCom= 6.39D-01 WtEn= 3.61D-01
 Coeff-Com:  0.100D+01
 Coeff-En:   0.100D+01
 Coeff:      0.100D+01
 Gap=     0.063 Goal=   None    Shift=    0.000
 GapD=    0.063 DampG=0.500 DampE=0.500 DampFc=0.2500 IDamp=-1.
 Damping current iteration by 2.50D-01
 RMSDP=1.64D-02 MaxDP=1.53D+00              OVMax= 5.52D-01

 Cycle   2  Pass 1  IDiag  1:
 E= -428.787418253651     Delta-E=       -0.164558059595 Rises=F Damp=T
 DIIS: error= 1.59D-02 at cycle   2 NSaved=   2.
 NSaved= 2 IEnMin= 2 EnMin= -428.787418253651     IErMin= 2 ErrMin= 1.59D-02
 ErrMax= 1.59D-02 EMaxC= 1.00D-01 BMatC= 9.36D-02 BMatP= 3.58D-01
 IDIUse=3 WtCom= 8.41D-01 WtEn= 1.59D-01
 Coeff-Com: -0.856D+00 0.186D+01
 Coeff-En:   0.000D+00 0.100D+01
 Coeff:     -0.720D+00 0.172D+01
 Gap=     0.290 Goal=   None    Shift=    0.000
 RMSDP=6.79D-03 MaxDP=7.36D-01 DE=-1.65D-01 OVMax= 1.17D-01

 Cycle   3  Pass 1  IDiag  1:
 E= -429.140292629314     Delta-E=       -0.352874375663 Rises=F Damp=F
 DIIS: error= 5.83D-03 at cycle   3 NSaved=   3.
 NSaved= 3 IEnMin= 3 EnMin= -429.140292629314     IErMin= 3 ErrMin= 5.83D-03
 ErrMax= 5.83D-03 EMaxC= 1.00D-01 BMatC= 8.81D-03 BMatP= 9.36D-02
 IDIUse=3 WtCom= 9.42D-01 WtEn= 5.83D-02
 Coeff-Com: -0.255D+00 0.588D+00 0.667D+00
 Coeff-En:   0.000D+00 0.000D+00 0.100D+01
 Coeff:     -0.241D+00 0.554D+00 0.687D+00
 Gap=     0.216 Goal=   None    Shift=    0.000
 RMSDP=1.69D-03 MaxDP=1.47D-01 DE=-3.53D-01 OVMax= 6.62D-02

 Cycle   4  Pass 1  IDiag  1:
 E= -429.144091996754     Delta-E=       -0.003799367440 Rises=F Damp=F
 DIIS: error= 5.85D-03 at cycle   4 NSaved=   4.
 NSaved= 4 IEnMin= 4 EnMin= -429.144091996754     IErMin= 3 ErrMin= 5.83D-03
 ErrMax= 5.85D-03 EMaxC= 1.00D-01 BMatC= 7.63D-03 BMatP= 8.81D-03
 IDIUse=3 WtCom= 9.41D-01 WtEn= 5.85D-02
 Coeff-Com:  0.707D-03 0.152D-01 0.480D+00 0.504D+00
 Coeff-En:   0.000D+00 0.000D+00 0.356D+00 0.644D+00
 Coeff:      0.666D-03 0.143D-01 0.473D+00 0.512D+00
 Gap=     0.216 Goal=   None    Shift=    0.000
 RMSDP=7.76D-04 MaxDP=8.25D-02 DE=-3.80D-03 OVMax= 3.16D-02

 Cycle   5  Pass 1  IDiag  1:
 E= -429.149795119913     Delta-E=       -0.005703123159 Rises=F Damp=F
 DIIS: error= 1.93D-03 at cycle   5 NSaved=   5.
 NSaved= 5 IEnMin= 5 EnMin= -429.149795119913     IErMin= 5 ErrMin= 1.93D-03
 ErrMax= 1.93D-03 EMaxC= 1.00D-01 BMatC= 8.26D-04 BMatP= 7.63D-03
 IDIUse=3 WtCom= 9.81D-01 WtEn= 1.93D-02
 Coeff-Com:  0.148D-01-0.285D-01 0.117D+00 0.280D+00 0.616D+00
 Coeff-En:   0.000D+00 0.000D+00 0.000D+00 0.279D-01 0.972D+00
 Coeff:      0.145D-01-0.279D-01 0.115D+00 0.275D+00 0.623D+00
 Gap=     0.220 Goal=   None    Shift=    0.000
 RMSDP=3.47D-04 MaxDP=4.30D-02 DE=-5.70D-03 OVMax= 1.47D-02

 Cycle   6  Pass 1  IDiag  1:
 E= -429.150521083304     Delta-E=       -0.000725963391 Rises=F Damp=F
 DIIS: error= 3.85D-04 at cycle   6 NSaved=   6.
 NSaved= 6 IEnMin= 6 EnMin= -429.150521083304     IErMin= 6 ErrMin= 3.85D-04
 ErrMax= 3.85D-04 EMaxC= 1.00D-01 BMatC= 8.95D-05 BMatP= 8.26D-04
 IDIUse=3 WtCom= 9.96D-01 WtEn= 3.85D-03
 Coeff-Com:  0.794D-02-0.197D-01-0.280D-01 0.504D-01 0.295D+00 0.695D+00
 Coeff-En:   0.000D+00 0.000D+00 0.000D+00 0.000D+00 0.000D+00 0.100D+01
 Coeff:      0.791D-02-0.196D-01-0.278D-01 0.502D-01 0.293D+00 0.696D+00
 Gap=     0.220 Goal=   None    Shift=    0.000
 RMSDP=1.35D-04 MaxDP=1.66D-02 DE=-7.26D-04 OVMax= 8.08D-03

 Cycle   7  Pass 1  IDiag  1:
 E= -429.150634814480     Delta-E=       -0.000113731176 Rises=F Damp=F
 DIIS: error= 9.62D-05 at cycle   7 NSaved=   7.
 NSaved= 7 IEnMin= 7 EnMin= -429.150634814480     IErMin= 7 ErrMin= 9.62D-05
 ErrMax= 9.62D-05 EMaxC= 1.00D-01 BMatC= 6.96D-06 BMatP= 8.95D-05
 IDIUse=1 WtCom= 1.00D+00 WtEn= 0.00D+00
 Coeff-Com: -0.810D-03-0.250D-03-0.198D-01-0.951D-02 0.176D-01 0.240D+00
 Coeff-Com:  0.773D+00
 Coeff:     -0.810D-03-0.250D-03-0.198D-01-0.951D-02 0.176D-01 0.240D+00
 Coeff:      0.773D+00
 Gap=     0.220 Goal=   None    Shift=    0.000
 RMSDP=6.02D-05 MaxDP=5.50D-03 DE=-1.14D-04 OVMax= 2.41D-03

 Cycle   8  Pass 1  IDiag  1:
 E= -429.150643352301     Delta-E=       -0.000008537821 Rises=F Damp=F
 DIIS: error= 2.95D-05 at cycle   8 NSaved=   8.
 NSaved= 8 IEnMin= 8 EnMin= -429.150643352301     IErMin= 8 ErrMin= 2.95D-05
 ErrMax= 2.95D-05 EMaxC= 1.00D-01 BMatC= 7.75D-07 BMatP= 6.96D-06
 IDIUse=1 WtCom= 1.00D+00 WtEn= 0.00D+00
 Coeff-Com: -0.145D-02 0.239D-02-0.451D-02-0.777D-02-0.228D-01 0.303D-01
 Coeff-Com:  0.319D+00 0.685D+00
 Coeff:     -0.145D-02 0.239D-02-0.451D-02-0.777D-02-0.228D-01 0.303D-01
 Coeff:      0.319D+00 0.685D+00
 Gap=     0.220 Goal=   None    Shift=    0.000
 RMSDP=1.06D-05 MaxDP=5.41D-04 DE=-8.54D-06 OVMax= 5.83D-04

 Cycle   9  Pass 1  IDiag  1:
 E= -429.150644230027     Delta-E=       -0.000000877726 Rises=F Damp=F
 DIIS: error= 1.01D-05 at cycle   9 NSaved=   9.
 NSaved= 9 IEnMin= 9 EnMin= -429.150644230027     IErMin= 9 ErrMin= 1.01D-05
 ErrMax= 1.01D-05 EMaxC= 1.00D-01 BMatC= 6.71D-08 BMatP= 7.75D-07
 IDIUse=1 WtCom= 1.00D+00 WtEn= 0.00D+00
 Coeff-Com: -0.250D-03 0.365D-03-0.231D-03-0.207D-02-0.802D-02-0.819D-02
 Coeff-Com:  0.488D-01 0.259D+00 0.710D+00
 Coeff:     -0.250D-03 0.365D-03-0.231D-03-0.207D-02-0.802D-02-0.819D-02
 Coeff:      0.488D-01 0.259D+00 0.710D+00
 Gap=     0.220 Goal=   None    Shift=    0.000
 RMSDP=2.90D-06 MaxDP=2.41D-04 DE=-8.78D-07 OVMax= 1.68D-04

 Cycle  10  Pass 1  IDiag  1:
 E= -429.150644295505     Delta-E=       -0.000000065477 Rises=F Damp=F
 DIIS: error= 3.85D-06 at cycle  10 NSaved=  10.
 NSaved=10 IEnMin=10 EnMin= -429.150644295505     IErMin=10 ErrMin= 3.85D-06
 ErrMax= 3.85D-06 EMaxC= 1.00D-01 BMatC= 1.02D-08 BMatP= 6.71D-08
 IDIUse=1 WtCom= 1.00D+00 WtEn= 0.00D+00
 Coeff-Com: -0.180D-04 0.246D-04 0.287D-03-0.419D-03-0.187D-02-0.685D-02
 Coeff-Com: -0.409D-02 0.675D-01 0.354D+00 0.592D+00
 Coeff:     -0.180D-04 0.246D-04 0.287D-03-0.419D-03-0.187D-02-0.685D-02
 Coeff:     -0.409D-02 0.675D-01 0.354D+00 0.592D+00
 Gap=     0.220 Goal=   None    Shift=    0.000
 RMSDP=1.56D-06 MaxDP=1.45D-04 DE=-6.55D-08 OVMax= 3.02D-05

 Cycle  11  Pass 1  IDiag  1:
 E= -429.150644306062     Delta-E=       -0.000000010557 Rises=F Damp=F
 DIIS: error= 5.74D-07 at cycle  11 NSaved=  11.
 NSaved=11 IEnMin=11 EnMin= -429.150644306062     IErMin=11 ErrMin= 5.74D-07
 ErrMax= 5.74D-07 EMaxC= 1.00D-01 BMatC= 2.25D-10 BMatP= 1.02D-08
 IDIUse=1 WtCom= 1.00D+00 WtEn= 0.00D+00
 Coeff-Com:  0.978D-05-0.121D-04 0.105D-03-0.286D-04-0.249D-03-0.197D-02
 Coeff-Com: -0.395D-02 0.974D-02 0.832D-01 0.197D+00 0.716D+00
 Coeff:      0.978D-05-0.121D-04 0.105D-03-0.286D-04-0.249D-03-0.197D-02
 Coeff:     -0.395D-02 0.974D-02 0.832D-01 0.197D+00 0.716D+00
 Gap=     0.220 Goal=   None    Shift=    0.000
 RMSDP=4.29D-07 MaxDP=6.20D-05 DE=-1.06D-08 OVMax= 4.51D-06

 Cycle  12  Pass 1  IDiag  1:
 E= -429.150644306278     Delta-E=       -0.000000000216 Rises=F Damp=F
 DIIS: error= 1.88D-07 at cycle  12 NSaved=  12.
 NSaved=12 IEnMin=12 EnMin= -429.150644306278     IErMin=12 ErrMin= 1.88D-07
 ErrMax= 1.88D-07 EMaxC= 1.00D-01 BMatC= 3.05D-11 BMatP= 2.25D-10
 IDIUse=1 WtCom= 1.00D+00 WtEn= 0.00D+00
 Coeff-Com:  0.744D-05-0.101D-04 0.206D-04 0.241D-04 0.528D-04-0.295D-03
 Coeff-Com: -0.132D-02-0.872D-03 0.854D-02 0.386D-01 0.318D+00 0.637D+00
 Coeff:      0.744D-05-0.101D-04 0.206D-04 0.241D-04 0.528D-04-0.295D-03
 Coeff:     -0.132D-02-0.872D-03 0.854D-02 0.386D-01 0.318D+00 0.637D+00
 Gap=     0.220 Goal=   None    Shift=    0.000
 RMSDP=1.18D-07 MaxDP=1.29D-05 DE=-2.16D-10 OVMax= 1.08D-06

 Cycle  13  Pass 1  IDiag  1:
 E= -429.150644306320     Delta-E=       -0.000000000042 Rises=F Damp=F
 DIIS: error= 4.68D-08 at cycle  13 NSaved=  13.
 NSaved=13 IEnMin=13 EnMin= -429.150644306320     IErMin=13 ErrMin= 4.68D-08
 ErrMax= 4.68D-08 EMaxC= 1.00D-01 BMatC= 1.12D-12 BMatP= 3.05D-11
 IDIUse=1 WtCom= 1.00D+00 WtEn= 0.00D+00
 Coeff-Com:  0.198D-05-0.243D-05 0.768D-06 0.953D-05 0.386D-04 0.264D-04
 Coeff-Com: -0.209D-03-0.103D-02-0.315D-02-0.728D-03 0.627D-01 0.211D+00
 Coeff-Com:  0.731D+00
 Coeff:      0.198D-05-0.243D-05 0.768D-06 0.953D-05 0.386D-04 0.264D-04
 Coeff:     -0.209D-03-0.103D-02-0.315D-02-0.728D-03 0.627D-01 0.211D+00
 Coeff:      0.731D+00
 Gap=     0.220 Goal=   None    Shift=    0.000
 RMSDP=1.49D-08 MaxDP=4.43D-07 DE=-4.23D-11 OVMax= 2.76D-07

 Cycle  14  Pass 1  IDiag  1:
 E= -429.150644306310     Delta-E=        0.000000000010 Rises=F Damp=F
 DIIS: error= 1.83D-08 at cycle  14 NSaved=  14.
 NSaved=14 IEnMin=13 EnMin= -429.150644306320     IErMin=14 ErrMin= 1.83D-08
 ErrMax= 1.83D-08 EMaxC= 1.00D-01 BMatC= 1.05D-13 BMatP= 1.12D-12
 IDIUse=1 WtCom= 1.00D+00 WtEn= 0.00D+00
 Coeff-Com:  0.350D-06-0.509D-06-0.643D-06 0.597D-06 0.117D-04 0.208D-04
 Coeff-Com:  0.226D-05-0.255D-03-0.139D-02-0.213D-02 0.182D-02 0.246D-01
 Coeff-Com:  0.207D+00 0.770D+00
 Coeff:      0.350D-06-0.509D-06-0.643D-06 0.597D-06 0.117D-04 0.208D-04
 Coeff:      0.226D-05-0.255D-03-0.139D-02-0.213D-02 0.182D-02 0.246D-01
 Coeff:      0.207D+00 0.770D+00
 Gap=     0.220 Goal=   None    Shift=    0.000
 RMSDP=6.62D-09 MaxDP=9.19D-07 DE= 1.02D-11 OVMax= 7.48D-08

 SCF Done:  E(RB3LYP) =  -429.150644306     A.U. after   14 cycles
             Convg  =    0.6623D-08             -V/T =  2.0048
 KE= 4.270860436665D+02 PE=-2.061861121248D+03 EE= 6.728803791288D+02
 Leave Link  502 at Fri Feb  7 21:50:01 2014, MaxMem= 4026531840 cpu:     842.1
 (Enter /usr/caen/gaussian-09revc/g09/l601.exe)
 Copying SCF densities to generalized density rwf, IOpCl= 0 IROHF=0.

 **********************************************************************

            Population analysis using the SCF density.

 **********************************************************************

 Orbital symmetries:
       Occupied  (A) (A) (A) (A) (A) (A) (A) (A) (A) (A) (A) (A)
                 (A) (A) (A) (A) (A) (A) (A) (A) (A) (A) (A) (A)
                 (A) (A) (A) (A) (A) (A) (A) (A) (A) (A) (A) (A)
                 (A) (A) (A) (A)
       Virtual   (A) (A) (A) (A) (A) (A) (A) (A) (A) (A) (A) (A)
                 (A) (A) (A) (A) (A) (A) (A) (A) (A) (A) (A) (A)
                 (A) (A) (A) (A) (A) (A) (A) (A) (A) (A) (A) (A)
                 (A) (A) (A) (A) (A) (A) (A) (A) (A) (A) (A) (A)
                 (A) (A) (A) (A) (A) (A) (A) (A) (A) (A) (A) (A)
                 (A) (A) (A) (A) (A) (A) (A) (A) (A) (A) (A) (A)
                 (A) (A) (A) (A) (A) (A) (A) (A) (A) (A) (A) (A)
                 (A) (A) (A) (A) (A) (A) (A) (A) (A) (A) (A) (A)
                 (A) (A) (A) (A) (A) (A) (A) (A) (A) (A) (A) (A)
                 (A) (A) (A) (A) (A) (A) (A) (A) (A) (A) (A) (A)
                 (A) (A) (A) (A) (A) (A) (A) (A) (A) (A) (A) (A)
                 (A) (A) (A) (A) (A) (A) (A) (A) (A) (A) (A) (A)
                 (A) (A) (A) (A) (A) (A) (A) (A) (A) (A) (A) (A)
                 (A) (A) (A) (A) (A) (A) (A) (A) (A) (A) (A) (A)
                 (A) (A) (A) (A) (A) (A) (A) (A) (A) (A) (A) (A)
                 (A) (A) (A) (A) (A) (A) (A) (A) (A) (A) (A) (A)
                 (A) (A) (A) (A) (A) (A) (A) (A) (A) (A) (A) (A)
                 (A) (A) (A) (A) (A) (A) (A) (A) (A) (A) (A) (A)
                 (A) (A) (A) (A) (A) (A) (A) (A) (A) (A) (A) (A)
                 (A) (A) (A) (A) (A) (A) (A) (A) (A) (A) (A) (A)
                 (A) (A) (A) (A) (A) (A) (A) (A) (A) (A) (A) (A)
                 (A) (A) (A) (A) (A) (A) (A) (A) (A) (A) (A) (A)
                 (A) (A) (A) (A) (A) (A) (A) (A) (A) (A) (A) (A)
                 (A) (A) (A) (A) (A) (A) (A) (A) (A) (A) (A) (A)
                 (A) (A) (A) (A) (A) (A) (A) (A) (A) (A) (A) (A)
                 (A) (A) (A) (A) (A) (A)
 The electronic state is 1-A.
 Alpha  occ. eigenvalues --  -19.12756 -10.26242 -10.19294 -10.18373 -10.17977
 Alpha  occ. eigenvalues --  -10.17646 -10.17118 -10.16447 -10.16178 -10.16136
 Alpha  occ. eigenvalues --   -1.05734  -0.83262  -0.81017  -0.75661  -0.68953
 Alpha  occ. eigenvalues --   -0.68705  -0.65711  -0.61076  -0.56704  -0.55265
 Alpha  occ. eigenvalues --   -0.50452  -0.48350  -0.46033  -0.45539  -0.44706
 Alpha  occ. eigenvalues --   -0.43454  -0.42367  -0.40059  -0.39150  -0.39024
 Alpha  occ. eigenvalues --   -0.38312  -0.37660  -0.36825  -0.36278  -0.35131
 Alpha  occ. eigenvalues --   -0.34273  -0.32996  -0.32866  -0.31782  -0.25974
 Alpha virt. eigenvalues --   -0.03960  -0.01233  -0.00291  -0.00015   0.00431
 Alpha virt. eigenvalues --    0.01662   0.02073   0.02653   0.02995   0.03865
 Alpha virt. eigenvalues --    0.04197   0.04266   0.05012   0.05604   0.06295
 Alpha virt. eigenvalues --    0.06599   0.06966   0.07745   0.08358   0.08847
 Alpha virt. eigenvalues --    0.09121   0.09425   0.10452   0.10804   0.11279
 Alpha virt. eigenvalues --    0.11544   0.11602   0.11776   0.12081   0.12514
 Alpha virt. eigenvalues --    0.12943   0.13402   0.13646   0.13836   0.14162
 Alpha virt. eigenvalues --    0.14284   0.14384   0.15254   0.15613   0.15828
 Alpha virt. eigenvalues --    0.16112   0.16580   0.16833   0.17219   0.17501
 Alpha virt. eigenvalues --    0.17816   0.17981   0.18810   0.19336   0.19635
 Alpha virt. eigenvalues --    0.20218   0.20467   0.20912   0.21174   0.21472
 Alpha virt. eigenvalues --    0.21748   0.22443   0.22763   0.23268   0.23863
 Alpha virt. eigenvalues --    0.24346   0.24881   0.25110   0.25800   0.26845
 Alpha virt. eigenvalues --    0.27342   0.27711   0.28334   0.29270   0.30528
 Alpha virt. eigenvalues --    0.30718   0.31571   0.32159   0.32777   0.33449
 Alpha virt. eigenvalues --    0.33946   0.34203   0.34829   0.35427   0.35922
 Alpha virt. eigenvalues --    0.37288   0.37494   0.38658   0.39241   0.40342
 Alpha virt. eigenvalues --    0.42885   0.43996   0.45418   0.46916   0.47603
 Alpha virt. eigenvalues --    0.49363   0.49681   0.50481   0.51953   0.52628
 Alpha virt. eigenvalues --    0.53986   0.54749   0.54917   0.56798   0.57752
 Alpha virt. eigenvalues --    0.59749   0.61321   0.62283   0.62520   0.64022
 Alpha virt. eigenvalues --    0.64198   0.65490   0.65670   0.66125   0.67318
 Alpha virt. eigenvalues --    0.67859   0.68347   0.68687   0.69058   0.69537
 Alpha virt. eigenvalues --    0.70497   0.71674   0.72623   0.73153   0.73400
 Alpha virt. eigenvalues --    0.73918   0.75035   0.75694   0.76745   0.77493
 Alpha virt. eigenvalues --    0.78454   0.78800   0.79670   0.81471   0.82777
 Alpha virt. eigenvalues --    0.86092   0.87217   0.91249   0.93271   0.96050
 Alpha virt. eigenvalues --    0.96948   0.98873   1.01228   1.01933   1.06270
 Alpha virt. eigenvalues --    1.08898   1.11245   1.11509   1.12611   1.15154
 Alpha virt. eigenvalues --    1.17575   1.18831   1.21454   1.23090   1.24003
 Alpha virt. eigenvalues --    1.25532   1.26548   1.30843   1.34226   1.39749
 Alpha virt. eigenvalues --    1.41351   1.44344   1.45640   1.46219   1.46663
 Alpha virt. eigenvalues --    1.46813   1.47942   1.49167   1.51527   1.54935
 Alpha virt. eigenvalues --    1.55295   1.56653   1.57636   1.58176   1.58380
 Alpha virt. eigenvalues --    1.59891   1.60227   1.60924   1.61879   1.62896
 Alpha virt. eigenvalues --    1.63126   1.64159   1.65152   1.66897   1.67166
 Alpha virt. eigenvalues --    1.67703   1.68661   1.70312   1.71818   1.72033
 Alpha virt. eigenvalues --    1.73762   1.75591   1.76008   1.76784   1.78282
 Alpha virt. eigenvalues --    1.79244   1.80911   1.82117   1.83550   1.86586
 Alpha virt. eigenvalues --    1.88458   1.88923   1.91576   1.95873   1.98440
 Alpha virt. eigenvalues --    1.98985   2.01678   2.02651   2.05535   2.07069
 Alpha virt. eigenvalues --    2.08498   2.11878   2.13149   2.14056   2.16240
 Alpha virt. eigenvalues --    2.17552   2.21183   2.23095   2.24929   2.27519
 Alpha virt. eigenvalues --    2.29824   2.31114   2.32977   2.34036   2.37848
 Alpha virt. eigenvalues --    2.39994   2.40539   2.43011   2.46200   2.46611
 Alpha virt. eigenvalues --    2.48540   2.49287   2.49988   2.50688   2.51387
 Alpha virt. eigenvalues --    2.52147   2.54124   2.55126   2.56965   2.57856
 Alpha virt. eigenvalues --    2.59490   2.60302   2.60977   2.62034   2.62855
 Alpha virt. eigenvalues --    2.65240   2.66471   2.67376   2.69803   2.71009
 Alpha virt. eigenvalues --    2.72725   2.73432   2.75380   2.76337   2.77443
 Alpha virt. eigenvalues --    2.78799   2.81702   2.83138   2.85978   2.87436
 Alpha virt. eigenvalues --    2.89078   2.90128   2.91737   2.95267   2.95758
 Alpha virt. eigenvalues --    2.96628   2.98624   2.99620   3.01902   3.03576
 Alpha virt. eigenvalues --    3.07648   3.12080   3.16807   3.22354   3.35770
 Alpha virt. eigenvalues --    3.38889   3.45911   3.50559   3.51378   3.51920
 Alpha virt. eigenvalues --    3.76412   3.78171   3.79092   3.79636   3.80776
 Alpha virt. eigenvalues --    3.82361   3.83789   3.84486   3.87252   3.88569
 Alpha virt. eigenvalues --    3.97306   3.98835   4.09981   4.17915   4.27595
 Alpha virt. eigenvalues --    4.29703   4.33056   4.38774   5.07072   5.18829
 Alpha virt. eigenvalues --    5.71693  23.82429  23.83116  23.86850  23.89514
 Alpha virt. eigenvalues --   23.90807  23.91300  23.97530  23.97749  23.98340
 Alpha virt. eigenvalues --   49.96476
          Condensed to atoms (all electrons):
              1          2          3          4          5          6
     1  C    5.601016   0.421640   0.393911   0.384655  -0.133830  -0.012165
     2  H    0.421640   0.603513  -0.050398  -0.025784  -0.111151  -0.023829
     3  H    0.393911  -0.050398   0.515590  -0.016984   0.095635   0.013567
     4  H    0.384655  -0.025784  -0.016984   0.525374  -0.028104  -0.004449
     5  C   -0.133830  -0.111151   0.095635  -0.028104   7.773762   0.673112
     6  H   -0.012165  -0.023829   0.013567  -0.004449   0.673112   0.594781
     7  C    0.244381   0.003266  -0.062592   0.005867  -1.839593  -0.203685
     8  H    0.010966   0.005272   0.002976  -0.001323  -0.152693  -0.012812
     9  H    0.019842   0.000683   0.003551  -0.000135   0.113597   0.020395
    10  C   -0.142142   0.014649  -0.015697   0.005404   0.320468  -0.065552
    11  H    0.004762  -0.000840   0.000333   0.000801   0.053585   0.008453
    12  H   -0.009666   0.000994   0.001405  -0.000892  -0.095760  -0.001285
    13  C   -0.066613  -0.003436   0.004150  -0.005220  -0.561914  -0.022673
    14  H    0.000552  -0.000298   0.000305  -0.000097   0.000170   0.000048
    15  H   -0.002812   0.001020  -0.000680   0.000055  -0.011322  -0.001093
    16  C    0.003058   0.002308  -0.000007  -0.001238  -0.196528  -0.013028
    17  H    0.000437   0.000109   0.000003  -0.000072  -0.002727  -0.000688
    18  C   -0.003121   0.000014   0.000062  -0.000056  -0.009976  -0.000302
    19  H   -0.000004   0.000017   0.000003  -0.000007  -0.001101  -0.000081
    20  H   -0.000009   0.000004   0.000001  -0.000003  -0.000706  -0.000034
    21  H   -0.000044  -0.000042   0.000010   0.000011   0.001343   0.000042
    22  C   -0.115371   0.031142  -0.041468  -0.013726  -0.247053  -0.107705
    23  H    0.018927   0.000044  -0.004830   0.003629  -0.073562   0.005011
    24  C    0.002421  -0.000279  -0.000113   0.000212   0.018799   0.002669
    25  H    0.000111   0.000005   0.000003  -0.000007  -0.001524  -0.000099
    26  H    0.000012   0.000022  -0.000021   0.000016   0.002938  -0.000095
    27  H    0.000362  -0.000073   0.000015   0.000008   0.001366   0.000475
    28  O    0.013244   0.003471  -0.015969  -0.000342   0.008916  -0.002695
              7          8          9         10         11         12
     1  C    0.244381   0.010966   0.019842  -0.142142   0.004762  -0.009666
     2  H    0.003266   0.005272   0.000683   0.014649  -0.000840   0.000994
     3  H   -0.062592   0.002976   0.003551  -0.015697   0.000333   0.001405
     4  H    0.005867  -0.001323  -0.000135   0.005404   0.000801  -0.000892
     5  C   -1.839593  -0.152693   0.113597   0.320468   0.053585  -0.095760
     6  H   -0.203685  -0.012812   0.020395  -0.065552   0.008453  -0.001285
     7  C    8.690205   0.550528   0.406825  -1.170453  -0.129060   0.017213
     8  H    0.550528   0.634197  -0.075949  -0.128785  -0.025925   0.022671
     9  H    0.406825  -0.075949   0.593738  -0.095388   0.021219  -0.036725
    10  C   -1.170453  -0.128785  -0.095388   7.309703   0.536005   0.376670
    11  H   -0.129060  -0.025925   0.021219   0.536005   0.641483  -0.117034
    12  H    0.017213   0.022671  -0.036725   0.376670  -0.117034   0.746367
    13  C    0.785810   0.053305  -0.055420  -1.412775  -0.124786  -0.032218
    14  H   -0.045006   0.001419   0.003452  -0.077768   0.017063  -0.006313
    15  H   -0.011403  -0.000264   0.000067  -0.054067  -0.023469   0.010075
    16  C   -0.194480  -0.003387  -0.023463   0.123236   0.013291   0.082536
    17  H   -0.006179  -0.000387  -0.000281  -0.011291   0.011829   0.011935
    18  C   -0.046962   0.001021  -0.005597  -0.220617  -0.005629   0.012891
    19  H    0.000293  -0.000444   0.000208   0.001180   0.001027   0.002622
    20  H   -0.001050  -0.000005   0.000096   0.001018  -0.000004  -0.000801
    21  H   -0.002513   0.001039  -0.000322  -0.001907   0.000042  -0.000527
    22  C   -0.157923  -0.010697  -0.043027   0.316965  -0.016903  -0.038304
    23  H   -0.282576  -0.003772  -0.001067   0.139109   0.001504   0.011664
    24  C    0.075316   0.000424   0.004194   0.205597  -0.021748  -0.034478
    25  H    0.001857   0.000210  -0.000189   0.006546  -0.000753   0.000589
    26  H   -0.015454  -0.000545   0.000518   0.013224   0.003818   0.000138
    27  H    0.004085  -0.000054   0.001337   0.022488   0.000215  -0.006248
    28  O   -0.158910  -0.000800  -0.000778   0.025574  -0.001454   0.003300
             13         14         15         16         17         18
     1  C   -0.066613   0.000552  -0.002812   0.003058   0.000437  -0.003121
     2  H   -0.003436  -0.000298   0.001020   0.002308   0.000109   0.000014
     3  H    0.004150   0.000305  -0.000680  -0.000007   0.000003   0.000062
     4  H   -0.005220  -0.000097   0.000055  -0.001238  -0.000072  -0.000056
     5  C   -0.561914   0.000170  -0.011322  -0.196528  -0.002727  -0.009976
     6  H   -0.022673   0.000048  -0.001093  -0.013028  -0.000688  -0.000302
     7  C    0.785810  -0.045006  -0.011403  -0.194480  -0.006179  -0.046962
     8  H    0.053305   0.001419  -0.000264  -0.003387  -0.000387   0.001021
     9  H   -0.055420   0.003452   0.000067  -0.023463  -0.000281  -0.005597
    10  C   -1.412775  -0.077768  -0.054067   0.123236  -0.011291  -0.220617
    11  H   -0.124786   0.017063  -0.023469   0.013291   0.011829  -0.005629
    12  H   -0.032218  -0.006313   0.010075   0.082536   0.011935   0.012891
    13  C    8.272632   0.447895   0.406457  -1.156096  -0.128835   0.383714
    14  H    0.447895   0.597885  -0.072368   0.029454   0.020997   0.011207
    15  H    0.406457  -0.072368   0.657792  -0.053985  -0.015194   0.010974
    16  C   -1.156096   0.029454  -0.053985   6.732026   0.568296  -0.139147
    17  H   -0.128835   0.020997  -0.015194   0.568296   0.621873  -0.057345
    18  C    0.383714   0.011207   0.010974  -0.139147  -0.057345   5.720048
    19  H   -0.085550   0.004911   0.001391   0.096479   0.016815   0.375946
    20  H    0.043937  -0.003169   0.001186  -0.087155  -0.012774   0.395165
    21  H   -0.014854   0.003215   0.000673  -0.049775  -0.013609   0.411102
    22  C    0.012881  -0.005139   0.010193  -0.011495  -0.000491   0.000409
    23  H   -0.092162   0.001884   0.000058   0.003729   0.000108   0.001113
    24  C    0.035102  -0.079803   0.030328  -0.172121  -0.129907  -0.206015
    25  H    0.032457  -0.003945  -0.002221  -0.085913  -0.006301  -0.003289
    26  H   -0.083810   0.012339  -0.003032   0.069553   0.013736  -0.008611
    27  H   -0.026259   0.000004   0.002934  -0.059509  -0.015141   0.003070
    28  O   -0.004790   0.000120   0.000017   0.000395   0.000040   0.000007
             19         20         21         22         23         24
     1  C   -0.000004  -0.000009  -0.000044  -0.115371   0.018927   0.002421
     2  H    0.000017   0.000004  -0.000042   0.031142   0.000044  -0.000279
     3  H    0.000003   0.000001   0.000010  -0.041468  -0.004830  -0.000113
     4  H   -0.000007  -0.000003   0.000011  -0.013726   0.003629   0.000212
     5  C   -0.001101  -0.000706   0.001343  -0.247053  -0.073562   0.018799
     6  H   -0.000081  -0.000034   0.000042  -0.107705   0.005011   0.002669
     7  C    0.000293  -0.001050  -0.002513  -0.157923  -0.282576   0.075316
     8  H   -0.000444  -0.000005   0.001039  -0.010697  -0.003772   0.000424
     9  H    0.000208   0.000096  -0.000322  -0.043027  -0.001067   0.004194
    10  C    0.001180   0.001018  -0.001907   0.316965   0.139109   0.205597
    11  H    0.001027  -0.000004   0.000042  -0.016903   0.001504  -0.021748
    12  H    0.002622  -0.000801  -0.000527  -0.038304   0.011664  -0.034478
    13  C   -0.085550   0.043937  -0.014854   0.012881  -0.092162   0.035102
    14  H    0.004911  -0.003169   0.003215  -0.005139   0.001884  -0.079803
    15  H    0.001391   0.001186   0.000673   0.010193   0.000058   0.030328
    16  C    0.096479  -0.087155  -0.049775  -0.011495   0.003729  -0.172121
    17  H    0.016815  -0.012774  -0.013609  -0.000491   0.000108  -0.129907
    18  C    0.375946   0.395165   0.411102   0.000409   0.001113  -0.206015
    19  H    0.561636  -0.032868  -0.047841  -0.000293  -0.000195  -0.040124
    20  H   -0.032868   0.562052  -0.018567   0.000102  -0.000122  -0.002979
    21  H   -0.047841  -0.018567   0.582197  -0.000190   0.000162   0.022976
    22  C   -0.000293   0.000102  -0.000190   5.743693   0.376831   0.014243
    23  H   -0.000195  -0.000122   0.000162   0.376831   0.846665   0.002252
    24  C   -0.040124  -0.002979   0.022976   0.014243   0.002252   5.735481
    25  H    0.002502   0.000419   0.001163  -0.000301   0.000248   0.411313
    26  H    0.011161   0.000888  -0.002191  -0.000171   0.001322   0.354951
    27  H   -0.005372   0.002861  -0.002344   0.002214  -0.009067   0.425439
    28  O    0.000001   0.000000   0.000002   0.519459  -0.064872  -0.000315
             25         26         27         28
     1  C    0.000111   0.000012   0.000362   0.013244
     2  H    0.000005   0.000022  -0.000073   0.003471
     3  H    0.000003  -0.000021   0.000015  -0.015969
     4  H   -0.000007   0.000016   0.000008  -0.000342
     5  C   -0.001524   0.002938   0.001366   0.008916
     6  H   -0.000099  -0.000095   0.000475  -0.002695
     7  C    0.001857  -0.015454   0.004085  -0.158910
     8  H    0.000210  -0.000545  -0.000054  -0.000800
     9  H   -0.000189   0.000518   0.001337  -0.000778
    10  C    0.006546   0.013224   0.022488   0.025574
    11  H   -0.000753   0.003818   0.000215  -0.001454
    12  H    0.000589   0.000138  -0.006248   0.003300
    13  C    0.032457  -0.083810  -0.026259  -0.004790
    14  H   -0.003945   0.012339   0.000004   0.000120
    15  H   -0.002221  -0.003032   0.002934   0.000017
    16  C   -0.085913   0.069553  -0.059509   0.000395
    17  H   -0.006301   0.013736  -0.015141   0.000040
    18  C   -0.003289  -0.008611   0.003070   0.000007
    19  H    0.002502   0.011161  -0.005372   0.000001
    20  H    0.000419   0.000888   0.002861   0.000000
    21  H    0.001163  -0.002191  -0.002344   0.000002
    22  C   -0.000301  -0.000171   0.002214   0.519459
    23  H    0.000248   0.001322  -0.009067  -0.064872
    24  C    0.411313   0.354951   0.425439  -0.000315
    25  H    0.566236  -0.030331  -0.028761  -0.000009
    26  H   -0.030331   0.558593  -0.043842  -0.000014
    27  H   -0.028761  -0.043842   0.591610   0.000350
    28  O   -0.000009  -0.000014   0.000350   7.897894
 Mulliken atomic charges:
              1
     1  C   -0.634519
     2  H    0.127957
     3  H    0.177239
     4  H    0.172408
     5  C    0.403854
     6  H    0.153714
     7  C   -0.457808
     8  H    0.133816
     9  H    0.148621
    10  C   -0.021394
    11  H    0.152175
    12  H    0.079180
    13  C   -0.600930
    14  H    0.140986
    15  H    0.118689
    16  C    0.522964
    17  H    0.135044
    18  C   -0.620074
    19  H    0.137689
    20  H    0.152516
    21  H    0.130749
    22  C   -0.217874
    23  H    0.117967
    24  C   -0.653835
    25  H    0.139983
    26  H    0.144890
    27  H    0.137836
    28  O   -0.221844
 Sum of Mulliken atomic charges =   0.00000
 Mulliken charges with hydrogens summed into heavy atoms:
              1
     1  C   -0.156916
     5  C    0.557569
     7  C   -0.175371
    10  C    0.209961
    13  C   -0.341255
    16  C    0.658008
    18  C   -0.199121
    22  C   -0.099907
    24  C   -0.231125
    28  O   -0.221844
 Sum of Mulliken charges with hydrogens summed into heavy atoms =   0.00000
 Electronic spatial extent (au):  <R**2>=           2818.0907
 Charge=              0.0000 electrons
 Dipole moment (field-independent basis, Debye):
    X=              2.4520    Y=             -1.4804    Z=              1.3150  Tot=              3.1516
 Quadrupole moment (field-independent basis, Debye-Ang):
   XX=            -79.2126   YY=            -68.3876   ZZ=            -65.5701
   XY=              6.8627   XZ=             -4.1145   YZ=              1.3244
 Traceless Quadrupole moment (field-independent basis, Debye-Ang):
   XX=             -8.1558   YY=              2.6692   ZZ=              5.4866
   XY=              6.8627   XZ=             -4.1145   YZ=              1.3244
 Octapole moment (field-independent basis, Debye-Ang**2):
  XXX=             43.6726  YYY=             -2.0242  ZZZ=             -1.7569  XYY=              4.8764
  XXY=            -25.4147  XXZ=             18.8136  XZZ=             -4.7927  YZZ=              1.2464
  YYZ=              3.9386  XYZ=             -6.4580
 Hexadecapole moment (field-independent basis, Debye-Ang**3):
 XXXX=          -3431.7176 YYYY=           -528.8703 ZZZZ=           -164.0505 XXXY=            111.5040
 XXXZ=            -41.9210 YYYX=             -3.5524 YYYZ=             -0.2242 ZZZX=              3.3677
 ZZZY=             -3.6677 XXYY=           -673.1261 XXZZ=           -558.8805 YYZZ=           -118.5766
 XXYZ=             22.3903 YYXZ=             -6.2955 ZZXY=             -2.1439
 N-N= 5.327440541466D+02 E-N=-2.061861120929D+03  KE= 4.270860436665D+02
 No NMR shielding tensors so no spin-rotation constants.
 Leave Link  601 at Fri Feb  7 21:50:05 2014, MaxMem= 4026531840 cpu:      14.1
 (Enter /usr/caen/gaussian-09revc/g09/l801.exe)
 Range of M.O.s used for correlation:     1   346
 NBasis=   346 NAE=    40 NBE=    40 NFC=     0 NFV=     0
 NROrb=    346 NOA=    40 NOB=    40 NVA=   306 NVB=   306

 **** Warning!!: The largest alpha MO coefficient is  0.13079400D+03

 Leave Link  801 at Fri Feb  7 21:50:05 2014, MaxMem= 4026531840 cpu:       0.9
 (Enter /usr/caen/gaussian-09revc/g09/l914.exe)
 RHF ground state
 Doing stability rather than CIS.
 MDV=  4026531840 DFT=T DoStab=T Mixed=T DoRPA=F DoScal=F NonHer=F
 Would need an additional   240800000 words for in-memory AO integral storage.
 Making orbital integer symmetry assigments:
 Orbital symmetries:
       Occupied  (A) (A) (A) (A) (A) (A) (A) (A) (A) (A) (A) (A)
                 (A) (A) (A) (A) (A) (A) (A) (A) (A) (A) (A) (A)
                 (A) (A) (A) (A) (A) (A) (A) (A) (A) (A) (A) (A)
                 (A) (A) (A) (A)
       Virtual   (A) (A) (A) (A) (A) (A) (A) (A) (A) (A) (A) (A)
                 (A) (A) (A) (A) (A) (A) (A) (A) (A) (A) (A) (A)
                 (A) (A) (A) (A) (A) (A) (A) (A) (A) (A) (A) (A)
                 (A) (A) (A) (A) (A) (A) (A) (A) (A) (A) (A) (A)
                 (A) (A) (A) (A) (A) (A) (A) (A) (A) (A) (A) (A)
                 (A) (A) (A) (A) (A) (A) (A) (A) (A) (A) (A) (A)
                 (A) (A) (A) (A) (A) (A) (A) (A) (A) (A) (A) (A)
                 (A) (A) (A) (A) (A) (A) (A) (A) (A) (A) (A) (A)
                 (A) (A) (A) (A) (A) (A) (A) (A) (A) (A) (A) (A)
                 (A) (A) (A) (A) (A) (A) (A) (A) (A) (A) (A) (A)
                 (A) (A) (A) (A) (A) (A) (A) (A) (A) (A) (A) (A)
                 (A) (A) (A) (A) (A) (A) (A) (A) (A) (A) (A) (A)
                 (A) (A) (A) (A) (A) (A) (A) (A) (A) (A) (A) (A)
                 (A) (A) (A) (A) (A) (A) (A) (A) (A) (A) (A) (A)
                 (A) (A) (A) (A) (A) (A) (A) (A) (A) (A) (A) (A)
                 (A) (A) (A) (A) (A) (A) (A) (A) (A) (A) (A) (A)
                 (A) (A) (A) (A) (A) (A) (A) (A) (A) (A) (A) (A)
                 (A) (A) (A) (A) (A) (A) (A) (A) (A) (A) (A) (A)
                 (A) (A) (A) (A) (A) (A) (A) (A) (A) (A) (A) (A)
                 (A) (A) (A) (A) (A) (A) (A) (A) (A) (A) (A) (A)
                 (A) (A) (A) (A) (A) (A) (A) (A) (A) (A) (A) (A)
                 (A) (A) (A) (A) (A) (A) (A) (A) (A) (A) (A) (A)
                 (A) (A) (A) (A) (A) (A) (A) (A) (A) (A) (A) (A)
                 (A) (A) (A) (A) (A) (A) (A) (A) (A) (A) (A) (A)
                 (A) (A) (A) (A) (A) (A) (A) (A) (A) (A) (A) (A)
                 (A) (A) (A) (A) (A) (A)
    24 initial guesses have been made.
 Convergence on wavefunction:    0.001000000000000
 Davidson Disk Diagonalization:  ConvIn= 1.00D-03 SkipCon=T Conv= 1.00D-03.
 Max sub-space:   200 roots to seek:    24 dimension of matrix:  24480
 Iteration     1 Dimension    24 NMult    24
 CISAX:  IP=  8 NPass=   1 NMax=    24.
 CISAX will form    24 AO SS matrices at one time.
 NMat=    24 NSing=    12.
 Symmetry not used in FoFDir.
 MinBra= 0 MaxBra= 2 Meth= 1.
 IRaf=       0 NMat=  24 IRICut=       1 DoRegI=T DoRafI=F ISym2E= 0 JSym2E=0.
 New state      1 was old state      2
 Excitation Energies [eV] at current iteration:
 Root      1 :     3.408933742637491
 Root      2 :     4.515171777432688
 Root      3 :     6.018817981803867
 Root      4 :     6.156275323790997
 Root      5 :     6.389269662670371
 Root      6 :     6.445912211246442
 Root      7 :     6.446766955004916
 Root      8 :     6.487716926883385
 Root      9 :     6.553551550138922
 Root     10 :     6.614857264105018
 Root     11 :     6.706152838128027
 Root     12 :     6.988176025077774
 Root     13 :     7.007082348859830
 Root     14 :     7.077112208919323
 Root     15 :     7.126437286043781
 Root     16 :     7.141492625841365
 Root     17 :     7.230425827003765
 Root     18 :     7.251609626398850
 Root     19 :     7.272457528106234
 Root     20 :     7.302593067507928
 Root     21 :     7.314519129556451
 Root     22 :     7.320722877067824
 Root     23 :     7.342495749017275
 Root     24 :     7.376533033701767
 Iteration     2 Dimension    48 NMult    48
 CISAX:  IP=  8 NPass=   1 NMax=    24.
 CISAX will form    24 AO SS matrices at one time.
 NMat=    24 NSing=    12.
 Root      1 not converged, maximum delta is    0.033522473505665
 Excitation Energies [eV] at current iteration:
 Root      1 :     3.157237397463078   Change is   -0.251696345174413
 Root      2 :     4.425830928025264   Change is   -0.089340849407423
 Root      3 :     5.657871058442129
 Root      4 :     5.929468872318493   Change is   -0.089349109485374
 Root      5 :     6.091227351695557   Change is   -0.065047972095439
 Root      6 :     6.309718279998833
 Iteration     3 Dimension    54 NMult    54
 CISAX:  IP=  1 NPass=   1 NMax=     6.
 CISAX will form     6 AO SS matrices at one time.
 NMat=     6 NSing=     3.
 Root      1 not converged, maximum delta is    0.005291703090205
 Excitation Energies [eV] at current iteration:
 Root      1 :     3.154131831084777   Change is   -0.003105566378302
 Root      2 :     4.234146519400098   Change is   -1.423724539042030
 Root      3 :     4.411210717743196   Change is   -0.014620210282068
 Root      4 :     5.922677375974679   Change is   -0.006791496343814
 Root      5 :     6.084152703157402   Change is   -0.007074648538156
 Root      6 :     6.307178486632730   Change is   -0.002539793366103
 Iteration     4 Dimension    60 NMult    60
 CISAX:  IP=  1 NPass=   1 NMax=     6.
 CISAX will form     6 AO SS matrices at one time.
 NMat=     6 NSing=     3.
 Root      1 has converged.
 Excitation Energies [eV] at current iteration:
 Root      1 :     3.154027719920419   Change is   -0.000104111164358
 Root      2 :     4.120864969678248   Change is   -0.113281549721850
 Root      3 :     4.409585024521186   Change is   -0.001625693222010
 Root      4 :     5.922241060833326   Change is   -0.000436315141353
 Root      5 :     6.082570090797036   Change is   -0.001582612360366
 Root      6 :     6.306748957971250   Change is   -0.000429528661481
 Convergence achieved on expansion vectors.
 ***********************************************************************
 Stability analysis using <AA,BB:AA,BB> singles matrix:
 ***********************************************************************

 Eigenvectors of the stability matrix:
 
 Eigenvector   1:      Triplet-A    Eigenvalue= 0.1159084  <S**2>=2.000
      40 -> 41         0.68297
      40 -> 42        -0.10768
 SavETr:  write IOETrn=   770 NScale= 10 NData=  16 NLR=1 LETran=      28.
 The wavefunction is stable under the perturbations considered.
 Leave Link  914 at Fri Feb  7 21:54:40 2014, MaxMem= 4026531840 cpu:    2147.1
 (Enter /usr/caen/gaussian-09revc/g09/l502.exe)
 The wavefunction is already stable.
 Leave Link  502 at Fri Feb  7 21:54:40 2014, MaxMem= 4026531840 cpu:       0.1
 (Enter /usr/caen/gaussian-09revc/g09/l508.exe)
 The wavefunction is already stable.
 Leave Link  508 at Fri Feb  7 21:54:40 2014, MaxMem= 4026531840 cpu:       0.0
 (Enter /usr/caen/gaussian-09revc/g09/l601.exe)
 Copying SCF densities to generalized density rwf, IOpCl= 0 IROHF=0.

 **********************************************************************

            Population analysis using the SCF density.

 **********************************************************************

 Orbital symmetries:
       Occupied  (A) (A) (A) (A) (A) (A) (A) (A) (A) (A) (A) (A)
                 (A) (A) (A) (A) (A) (A) (A) (A) (A) (A) (A) (A)
                 (A) (A) (A) (A) (A) (A) (A) (A) (A) (A) (A) (A)
                 (A) (A) (A) (A)
       Virtual   (A) (A) (A) (A) (A) (A) (A) (A) (A) (A) (A) (A)
                 (A) (A) (A) (A) (A) (A) (A) (A) (A) (A) (A) (A)
                 (A) (A) (A) (A) (A) (A) (A) (A) (A) (A) (A) (A)
                 (A) (A) (A) (A) (A) (A) (A) (A) (A) (A) (A) (A)
                 (A) (A) (A) (A) (A) (A) (A) (A) (A) (A) (A) (A)
                 (A) (A) (A) (A) (A) (A) (A) (A) (A) (A) (A) (A)
                 (A) (A) (A) (A) (A) (A) (A) (A) (A) (A) (A) (A)
                 (A) (A) (A) (A) (A) (A) (A) (A) (A) (A) (A) (A)
                 (A) (A) (A) (A) (A) (A) (A) (A) (A) (A) (A) (A)
                 (A) (A) (A) (A) (A) (A) (A) (A) (A) (A) (A) (A)
                 (A) (A) (A) (A) (A) (A) (A) (A) (A) (A) (A) (A)
                 (A) (A) (A) (A) (A) (A) (A) (A) (A) (A) (A) (A)
                 (A) (A) (A) (A) (A) (A) (A) (A) (A) (A) (A) (A)
                 (A) (A) (A) (A) (A) (A) (A) (A) (A) (A) (A) (A)
                 (A) (A) (A) (A) (A) (A) (A) (A) (A) (A) (A) (A)
                 (A) (A) (A) (A) (A) (A) (A) (A) (A) (A) (A) (A)
                 (A) (A) (A) (A) (A) (A) (A) (A) (A) (A) (A) (A)
                 (A) (A) (A) (A) (A) (A) (A) (A) (A) (A) (A) (A)
                 (A) (A) (A) (A) (A) (A) (A) (A) (A) (A) (A) (A)
                 (A) (A) (A) (A) (A) (A) (A) (A) (A) (A) (A) (A)
                 (A) (A) (A) (A) (A) (A) (A) (A) (A) (A) (A) (A)
                 (A) (A) (A) (A) (A) (A) (A) (A) (A) (A) (A) (A)
                 (A) (A) (A) (A) (A) (A) (A) (A) (A) (A) (A) (A)
                 (A) (A) (A) (A) (A) (A) (A) (A) (A) (A) (A) (A)
                 (A) (A) (A) (A) (A) (A) (A) (A) (A) (A) (A) (A)
                 (A) (A) (A) (A) (A) (A)
 The electronic state is 1-A.
 Alpha  occ. eigenvalues --  -19.12756 -10.26242 -10.19294 -10.18373 -10.17977
 Alpha  occ. eigenvalues --  -10.17646 -10.17118 -10.16447 -10.16178 -10.16136
 Alpha  occ. eigenvalues --   -1.05734  -0.83262  -0.81017  -0.75661  -0.68953
 Alpha  occ. eigenvalues --   -0.68705  -0.65711  -0.61076  -0.56704  -0.55265
 Alpha  occ. eigenvalues --   -0.50452  -0.48350  -0.46033  -0.45539  -0.44706
 Alpha  occ. eigenvalues --   -0.43454  -0.42367  -0.40059  -0.39150  -0.39024
 Alpha  occ. eigenvalues --   -0.38312  -0.37660  -0.36825  -0.36278  -0.35131
 Alpha  occ. eigenvalues --   -0.34273  -0.32996  -0.32866  -0.31782  -0.25974
 Alpha virt. eigenvalues --   -0.03960  -0.01233  -0.00291  -0.00015   0.00431
 Alpha virt. eigenvalues --    0.01662   0.02073   0.02653   0.02995   0.03865
 Alpha virt. eigenvalues --    0.04197   0.04266   0.05012   0.05604   0.06295
 Alpha virt. eigenvalues --    0.06599   0.06966   0.07745   0.08358   0.08847
 Alpha virt. eigenvalues --    0.09121   0.09425   0.10452   0.10804   0.11279
 Alpha virt. eigenvalues --    0.11544   0.11602   0.11776   0.12081   0.12514
 Alpha virt. eigenvalues --    0.12943   0.13402   0.13646   0.13836   0.14162
 Alpha virt. eigenvalues --    0.14284   0.14384   0.15254   0.15613   0.15828
 Alpha virt. eigenvalues --    0.16112   0.16580   0.16833   0.17219   0.17501
 Alpha virt. eigenvalues --    0.17816   0.17981   0.18810   0.19336   0.19635
 Alpha virt. eigenvalues --    0.20218   0.20467   0.20912   0.21174   0.21472
 Alpha virt. eigenvalues --    0.21748   0.22443   0.22763   0.23268   0.23863
 Alpha virt. eigenvalues --    0.24346   0.24881   0.25110   0.25800   0.26845
 Alpha virt. eigenvalues --    0.27342   0.27711   0.28334   0.29270   0.30528
 Alpha virt. eigenvalues --    0.30718   0.31571   0.32159   0.32777   0.33449
 Alpha virt. eigenvalues --    0.33946   0.34203   0.34829   0.35427   0.35922
 Alpha virt. eigenvalues --    0.37288   0.37494   0.38658   0.39241   0.40342
 Alpha virt. eigenvalues --    0.42885   0.43996   0.45418   0.46916   0.47603
 Alpha virt. eigenvalues --    0.49363   0.49681   0.50481   0.51953   0.52628
 Alpha virt. eigenvalues --    0.53986   0.54749   0.54917   0.56798   0.57752
 Alpha virt. eigenvalues --    0.59749   0.61321   0.62283   0.62520   0.64022
 Alpha virt. eigenvalues --    0.64198   0.65490   0.65670   0.66125   0.67318
 Alpha virt. eigenvalues --    0.67859   0.68347   0.68687   0.69058   0.69537
 Alpha virt. eigenvalues --    0.70497   0.71674   0.72623   0.73153   0.73400
 Alpha virt. eigenvalues --    0.73918   0.75035   0.75694   0.76745   0.77493
 Alpha virt. eigenvalues --    0.78454   0.78800   0.79670   0.81471   0.82777
 Alpha virt. eigenvalues --    0.86092   0.87217   0.91249   0.93271   0.96050
 Alpha virt. eigenvalues --    0.96948   0.98873   1.01228   1.01933   1.06270
 Alpha virt. eigenvalues --    1.08898   1.11245   1.11509   1.12611   1.15154
 Alpha virt. eigenvalues --    1.17575   1.18831   1.21454   1.23090   1.24003
 Alpha virt. eigenvalues --    1.25532   1.26548   1.30843   1.34226   1.39749
 Alpha virt. eigenvalues --    1.41351   1.44344   1.45640   1.46219   1.46663
 Alpha virt. eigenvalues --    1.46813   1.47942   1.49167   1.51527   1.54935
 Alpha virt. eigenvalues --    1.55295   1.56653   1.57636   1.58176   1.58380
 Alpha virt. eigenvalues --    1.59891   1.60227   1.60924   1.61879   1.62896
 Alpha virt. eigenvalues --    1.63126   1.64159   1.65152   1.66897   1.67166
 Alpha virt. eigenvalues --    1.67703   1.68661   1.70312   1.71818   1.72033
 Alpha virt. eigenvalues --    1.73762   1.75591   1.76008   1.76784   1.78282
 Alpha virt. eigenvalues --    1.79244   1.80911   1.82117   1.83550   1.86586
 Alpha virt. eigenvalues --    1.88458   1.88923   1.91576   1.95873   1.98440
 Alpha virt. eigenvalues --    1.98985   2.01678   2.02651   2.05535   2.07069
 Alpha virt. eigenvalues --    2.08498   2.11878   2.13149   2.14056   2.16240
 Alpha virt. eigenvalues --    2.17552   2.21183   2.23095   2.24929   2.27519
 Alpha virt. eigenvalues --    2.29824   2.31114   2.32977   2.34036   2.37848
 Alpha virt. eigenvalues --    2.39994   2.40539   2.43011   2.46200   2.46611
 Alpha virt. eigenvalues --    2.48540   2.49287   2.49988   2.50688   2.51387
 Alpha virt. eigenvalues --    2.52147   2.54124   2.55126   2.56965   2.57856
 Alpha virt. eigenvalues --    2.59490   2.60302   2.60977   2.62034   2.62855
 Alpha virt. eigenvalues --    2.65240   2.66471   2.67376   2.69803   2.71009
 Alpha virt. eigenvalues --    2.72725   2.73432   2.75380   2.76337   2.77443
 Alpha virt. eigenvalues --    2.78799   2.81702   2.83138   2.85978   2.87436
 Alpha virt. eigenvalues --    2.89078   2.90128   2.91737   2.95267   2.95758
 Alpha virt. eigenvalues --    2.96628   2.98624   2.99620   3.01902   3.03576
 Alpha virt. eigenvalues --    3.07648   3.12080   3.16807   3.22354   3.35770
 Alpha virt. eigenvalues --    3.38889   3.45911   3.50559   3.51378   3.51920
 Alpha virt. eigenvalues --    3.76412   3.78171   3.79092   3.79636   3.80776
 Alpha virt. eigenvalues --    3.82361   3.83789   3.84486   3.87252   3.88569
 Alpha virt. eigenvalues --    3.97306   3.98835   4.09981   4.17915   4.27595
 Alpha virt. eigenvalues --    4.29703   4.33056   4.38774   5.07072   5.18829
 Alpha virt. eigenvalues --    5.71693  23.82429  23.83116  23.86850  23.89514
 Alpha virt. eigenvalues --   23.90807  23.91300  23.97530  23.97749  23.98340
 Alpha virt. eigenvalues --   49.96476
          Condensed to atoms (all electrons):
              1          2          3          4          5          6
     1  C    5.601016   0.421640   0.393911   0.384655  -0.133830  -0.012165
     2  H    0.421640   0.603513  -0.050398  -0.025784  -0.111151  -0.023829
     3  H    0.393911  -0.050398   0.515590  -0.016984   0.095635   0.013567
     4  H    0.384655  -0.025784  -0.016984   0.525374  -0.028104  -0.004449
     5  C   -0.133830  -0.111151   0.095635  -0.028104   7.773762   0.673112
     6  H   -0.012165  -0.023829   0.013567  -0.004449   0.673112   0.594781
     7  C    0.244381   0.003266  -0.062592   0.005867  -1.839593  -0.203685
     8  H    0.010966   0.005272   0.002976  -0.001323  -0.152693  -0.012812
     9  H    0.019842   0.000683   0.003551  -0.000135   0.113597   0.020395
    10  C   -0.142142   0.014649  -0.015697   0.005404   0.320468  -0.065552
    11  H    0.004762  -0.000840   0.000333   0.000801   0.053585   0.008453
    12  H   -0.009666   0.000994   0.001405  -0.000892  -0.095760  -0.001285
    13  C   -0.066613  -0.003436   0.004150  -0.005220  -0.561914  -0.022673
    14  H    0.000552  -0.000298   0.000305  -0.000097   0.000170   0.000048
    15  H   -0.002812   0.001020  -0.000680   0.000055  -0.011322  -0.001093
    16  C    0.003058   0.002308  -0.000007  -0.001238  -0.196528  -0.013028
    17  H    0.000437   0.000109   0.000003  -0.000072  -0.002727  -0.000688
    18  C   -0.003121   0.000014   0.000062  -0.000056  -0.009976  -0.000302
    19  H   -0.000004   0.000017   0.000003  -0.000007  -0.001101  -0.000081
    20  H   -0.000009   0.000004   0.000001  -0.000003  -0.000706  -0.000034
    21  H   -0.000044  -0.000042   0.000010   0.000011   0.001343   0.000042
    22  C   -0.115371   0.031142  -0.041468  -0.013726  -0.247053  -0.107705
    23  H    0.018927   0.000044  -0.004830   0.003629  -0.073562   0.005011
    24  C    0.002421  -0.000279  -0.000113   0.000212   0.018799   0.002669
    25  H    0.000111   0.000005   0.000003  -0.000007  -0.001524  -0.000099
    26  H    0.000012   0.000022  -0.000021   0.000016   0.002938  -0.000095
    27  H    0.000362  -0.000073   0.000015   0.000008   0.001366   0.000475
    28  O    0.013244   0.003471  -0.015969  -0.000342   0.008916  -0.002695
              7          8          9         10         11         12
     1  C    0.244381   0.010966   0.019842  -0.142142   0.004762  -0.009666
     2  H    0.003266   0.005272   0.000683   0.014649  -0.000840   0.000994
     3  H   -0.062592   0.002976   0.003551  -0.015697   0.000333   0.001405
     4  H    0.005867  -0.001323  -0.000135   0.005404   0.000801  -0.000892
     5  C   -1.839593  -0.152693   0.113597   0.320468   0.053585  -0.095760
     6  H   -0.203685  -0.012812   0.020395  -0.065552   0.008453  -0.001285
     7  C    8.690205   0.550528   0.406825  -1.170453  -0.129060   0.017213
     8  H    0.550528   0.634197  -0.075949  -0.128785  -0.025925   0.022671
     9  H    0.406825  -0.075949   0.593738  -0.095388   0.021219  -0.036725
    10  C   -1.170453  -0.128785  -0.095388   7.309703   0.536005   0.376670
    11  H   -0.129060  -0.025925   0.021219   0.536005   0.641483  -0.117034
    12  H    0.017213   0.022671  -0.036725   0.376670  -0.117034   0.746367
    13  C    0.785810   0.053305  -0.055420  -1.412775  -0.124786  -0.032218
    14  H   -0.045006   0.001419   0.003452  -0.077768   0.017063  -0.006313
    15  H   -0.011403  -0.000264   0.000067  -0.054067  -0.023469   0.010075
    16  C   -0.194480  -0.003387  -0.023463   0.123236   0.013291   0.082536
    17  H   -0.006179  -0.000387  -0.000281  -0.011291   0.011829   0.011935
    18  C   -0.046962   0.001021  -0.005597  -0.220617  -0.005629   0.012891
    19  H    0.000293  -0.000444   0.000208   0.001180   0.001027   0.002622
    20  H   -0.001050  -0.000005   0.000096   0.001018  -0.000004  -0.000801
    21  H   -0.002513   0.001039  -0.000322  -0.001907   0.000042  -0.000527
    22  C   -0.157923  -0.010697  -0.043027   0.316965  -0.016903  -0.038304
    23  H   -0.282576  -0.003772  -0.001067   0.139109   0.001504   0.011664
    24  C    0.075316   0.000424   0.004194   0.205597  -0.021748  -0.034478
    25  H    0.001857   0.000210  -0.000189   0.006546  -0.000753   0.000589
    26  H   -0.015454  -0.000545   0.000518   0.013224   0.003818   0.000138
    27  H    0.004085  -0.000054   0.001337   0.022488   0.000215  -0.006248
    28  O   -0.158910  -0.000800  -0.000778   0.025574  -0.001454   0.003300
             13         14         15         16         17         18
     1  C   -0.066613   0.000552  -0.002812   0.003058   0.000437  -0.003121
     2  H   -0.003436  -0.000298   0.001020   0.002308   0.000109   0.000014
     3  H    0.004150   0.000305  -0.000680  -0.000007   0.000003   0.000062
     4  H   -0.005220  -0.000097   0.000055  -0.001238  -0.000072  -0.000056
     5  C   -0.561914   0.000170  -0.011322  -0.196528  -0.002727  -0.009976
     6  H   -0.022673   0.000048  -0.001093  -0.013028  -0.000688  -0.000302
     7  C    0.785810  -0.045006  -0.011403  -0.194480  -0.006179  -0.046962
     8  H    0.053305   0.001419  -0.000264  -0.003387  -0.000387   0.001021
     9  H   -0.055420   0.003452   0.000067  -0.023463  -0.000281  -0.005597
    10  C   -1.412775  -0.077768  -0.054067   0.123236  -0.011291  -0.220617
    11  H   -0.124786   0.017063  -0.023469   0.013291   0.011829  -0.005629
    12  H   -0.032218  -0.006313   0.010075   0.082536   0.011935   0.012891
    13  C    8.272632   0.447895   0.406457  -1.156096  -0.128835   0.383714
    14  H    0.447895   0.597885  -0.072368   0.029454   0.020997   0.011207
    15  H    0.406457  -0.072368   0.657792  -0.053985  -0.015194   0.010974
    16  C   -1.156096   0.029454  -0.053985   6.732026   0.568296  -0.139147
    17  H   -0.128835   0.020997  -0.015194   0.568296   0.621873  -0.057345
    18  C    0.383714   0.011207   0.010974  -0.139147  -0.057345   5.720048
    19  H   -0.085550   0.004911   0.001391   0.096479   0.016815   0.375946
    20  H    0.043937  -0.003169   0.001186  -0.087155  -0.012774   0.395165
    21  H   -0.014854   0.003215   0.000673  -0.049775  -0.013609   0.411102
    22  C    0.012881  -0.005139   0.010193  -0.011495  -0.000491   0.000409
    23  H   -0.092162   0.001884   0.000058   0.003729   0.000108   0.001113
    24  C    0.035102  -0.079803   0.030328  -0.172121  -0.129907  -0.206015
    25  H    0.032457  -0.003945  -0.002221  -0.085913  -0.006301  -0.003289
    26  H   -0.083810   0.012339  -0.003032   0.069553   0.013736  -0.008611
    27  H   -0.026259   0.000004   0.002934  -0.059509  -0.015141   0.003070
    28  O   -0.004790   0.000120   0.000017   0.000395   0.000040   0.000007
             19         20         21         22         23         24
     1  C   -0.000004  -0.000009  -0.000044  -0.115371   0.018927   0.002421
     2  H    0.000017   0.000004  -0.000042   0.031142   0.000044  -0.000279
     3  H    0.000003   0.000001   0.000010  -0.041468  -0.004830  -0.000113
     4  H   -0.000007  -0.000003   0.000011  -0.013726   0.003629   0.000212
     5  C   -0.001101  -0.000706   0.001343  -0.247053  -0.073562   0.018799
     6  H   -0.000081  -0.000034   0.000042  -0.107705   0.005011   0.002669
     7  C    0.000293  -0.001050  -0.002513  -0.157923  -0.282576   0.075316
     8  H   -0.000444  -0.000005   0.001039  -0.010697  -0.003772   0.000424
     9  H    0.000208   0.000096  -0.000322  -0.043027  -0.001067   0.004194
    10  C    0.001180   0.001018  -0.001907   0.316965   0.139109   0.205597
    11  H    0.001027  -0.000004   0.000042  -0.016903   0.001504  -0.021748
    12  H    0.002622  -0.000801  -0.000527  -0.038304   0.011664  -0.034478
    13  C   -0.085550   0.043937  -0.014854   0.012881  -0.092162   0.035102
    14  H    0.004911  -0.003169   0.003215  -0.005139   0.001884  -0.079803
    15  H    0.001391   0.001186   0.000673   0.010193   0.000058   0.030328
    16  C    0.096479  -0.087155  -0.049775  -0.011495   0.003729  -0.172121
    17  H    0.016815  -0.012774  -0.013609  -0.000491   0.000108  -0.129907
    18  C    0.375946   0.395165   0.411102   0.000409   0.001113  -0.206015
    19  H    0.561636  -0.032868  -0.047841  -0.000293  -0.000195  -0.040124
    20  H   -0.032868   0.562052  -0.018567   0.000102  -0.000122  -0.002979
    21  H   -0.047841  -0.018567   0.582197  -0.000190   0.000162   0.022976
    22  C   -0.000293   0.000102  -0.000190   5.743693   0.376831   0.014243
    23  H   -0.000195  -0.000122   0.000162   0.376831   0.846665   0.002252
    24  C   -0.040124  -0.002979   0.022976   0.014243   0.002252   5.735481
    25  H    0.002502   0.000419   0.001163  -0.000301   0.000248   0.411313
    26  H    0.011161   0.000888  -0.002191  -0.000171   0.001322   0.354951
    27  H   -0.005372   0.002861  -0.002344   0.002214  -0.009067   0.425439
    28  O    0.000001   0.000000   0.000002   0.519459  -0.064872  -0.000315
             25         26         27         28
     1  C    0.000111   0.000012   0.000362   0.013244
     2  H    0.000005   0.000022  -0.000073   0.003471
     3  H    0.000003  -0.000021   0.000015  -0.015969
[...]
 00006266,0.00002805,0.00001820,-0.00005408,-0.00000521,0.00000010,-0.0
 0003478,-0.00049104,-0.00027244,0.00000092,0.00001866,-0.00015706,0.00
 000954,-0.00017487,-0.00012579,0.00031439,-0.00131457,0.01361917,0.001
 37926,-0.00070952,0.00004700,0.00035533,0.00238447,-0.04359769,-0.0546
 3643,0.00236774,-0.03214914,-0.00443766,-0.00011249,0.01423878,0.00196
 680,-0.00454742,0.04643560,0.05511632,0.00923309,0.02592891,0.00805992
 ,-0.00600698,0.00355724,-0.00240771,0.00022057,0.00141972,-0.00140933,
 -0.00150649,0.00155464,0.00164468,-0.08137066,0.00468758,0.00158644,-0
 .00382951,-0.00568838,-0.00367671,-0.01431751,-0.03074451,-0.00667147,
 -0.00413941,-0.00066060,0.00181737,0.00190124,0.00017469,-0.00122921,0
 .00117816,-0.00244364,-0.00043705,-0.00022321,0.00002539,0.00001238,-0
 .00200021,0.00103339,0.00037565,-0.00067413,0.00029732,0.00043142,0.00
 009490,-0.00004216,-0.00012565,0.00029961,0.00060107,-0.00014402,-0.00
 008959,0.00015582,-0.00018810,-0.00001853,-0.00002079,0.00000162,0.000
 05948,-0.00005133,0.00010973,-0.00000808,-0.00000916,-0.00004698,0.000
 11515,-0.00001512,0.00000267,-0.00000329,0.00006276,-0.00000745,0.8206
 6641,0.00320009,-0.03347327,-0.00601274,0.00187152,-0.00115268,0.00097
 051,-0.00115585,0.00111136,-0.00150958,-0.00174220,0.00090125,0.000412
 52,0.00749655,-0.17051051,-0.01455636,-0.00098539,0.00373270,0.0008691
 1,-0.01677094,-0.00597233,0.00426478,0.00302242,0.00189236,-0.00134327
 ,0.00137568,0.00050183,-0.00202941,-0.00133014,0.00416384,-0.00060889,
 -0.00013283,-0.00042605,-0.00012825,0.00105604,-0.00249925,-0.00038994
 ,0.00122484,-0.00216710,0.00068610,0.00000084,0.00014185,-0.00005823,-
 0.00069414,-0.00041121,0.00020923,0.00005820,0.00051897,-0.00044038,0.
 00000370,-0.00004767,0.00000169,0.00021082,-0.00027674,0.00015633,-0.0
 0001842,0.00002738,-0.00004362,0.00019207,0.00003505,-0.00000696,-0.00
 007515,-0.00005819,0.00000069,0.04777573,0.53275999,0.00474440,0.00557
 375,0.00335842,-0.00221764,0.00153378,-0.00011387,-0.00001408,0.001996
 29,-0.00058602,-0.00086767,-0.00023135,0.00092859,0.00277332,-0.013060
 19,-0.08740757,-0.01046404,-0.03392351,-0.01206792,-0.00237964,0.01579
 912,0.00573343,0.00449267,0.00186972,-0.00224573,0.00161754,0.00141951
 ,-0.00104707,-0.00003575,-0.00049252,-0.00054642,-0.00009552,0.0000726
 9,0.00013389,-0.00026063,0.00023252,0.00053763,0.00013833,-0.00004817,
 0.00063153,0.00003195,-0.00001173,-0.00013654,-0.00006913,-0.00000588,
 -0.00007351,-0.00008674,0.00006354,-0.00031347,-0.00000542,-0.00001585
 ,0.00001202,0.00007524,-0.00008680,0.00011349,-0.00000790,0.00000073,-
 0.00003804,0.00011370,-0.00000205,-0.00000074,-0.00002593,0.00001283,-
 0.00000787,0.28318248,0.07428787,0.35601667,0.00035974,-0.00153614,-0.
 00082625,0.00036841,-0.00024022,0.00008455,-0.00021517,-0.00011372,0.0
 0014416,0.00001588,-0.00017868,-0.00023581,0.00769666,-0.00322961,-0.0
 0457912,-0.00008996,0.00000551,-0.00000657,0.00004086,0.00256314,0.000
 72700,0.00073947,0.00022639,-0.00019641,-0.00007881,0.00010965,0.00007
 945,-0.00146801,0.00009037,-0.00013110,0.00004350,0.00000417,-0.000068
 23,-0.00096692,-0.00149947,-0.00017951,0.00017985,-0.00029682,0.000032
 62,-0.00000016,0.00001198,0.00000795,-0.00009537,-0.00014345,0.0000529
 7,0.00002262,0.00004209,-0.00004097,0.00000119,-0.00000241,0.00000060,
 0.00001828,-0.00002456,0.00000734,-0.00000121,0.00000416,0.00000052,0.
 00001027,0.00000528,-0.00000129,-0.00000858,-0.00001271,0.00000023,-0.
 13026409,0.09925459,-0.01626227,0.16702111,-0.00361255,-0.00405973,-0.
 00303613,0.00153804,-0.00127474,0.00053663,-0.00003226,0.00013494,0.00
 026918,0.00007729,0.00023820,-0.00003288,0.02208930,-0.01499255,0.0055
 5586,-0.00033312,-0.00013468,-0.00131162,0.00116278,0.00082449,-0.0002
 3799,-0.00022056,0.00017736,0.00001722,-0.00025959,-0.00006754,0.00036
 806,0.00031665,-0.00156769,-0.00011426,-0.00000521,0.00008161,0.000041
 67,-0.00106147,0.00115303,0.00026439,-0.00049145,0.00070948,0.00010832
 ,0.00003552,-0.00004260,-0.00004795,0.00030355,0.00019702,-0.00010871,
 -0.00009317,-0.00002923,-0.00002248,-0.00000525,-0.00000350,0.00000346
 ,-0.00000111,0.00000170,0.00001488,-0.00000136,-0.00000394,-0.00000785
 ,0.00001907,-0.00000952,0.00000215,0.00000180,0.00001982,-0.00000197,0
 .09087348,-0.18016736,0.02219583,-0.11101600,0.17615930,-0.00155275,-0
 .00160368,0.00147188,0.00015260,-0.00038200,0.00014902,0.00015351,-0.0
 0039580,-0.00010946,0.00006569,0.00009912,-0.00025449,0.00076433,-0.00
 664699,0.01607067,0.00082988,0.00375764,0.00108127,-0.00073708,-0.0026
 4213,-0.00029775,-0.00059697,-0.00025381,0.00010176,0.00012138,-0.0001
 4129,-0.00027415,-0.00030829,0.00032726,0.00016829,-0.00006144,0.00000
 185,-0.00003817,-0.00020123,-0.00008220,0.00020053,0.00003639,-0.00003
 174,-0.00005229,0.00001548,0.00001455,-0.00001302,0.00002891,-0.000032
 40,-0.00000333,-0.00000217,0.00001453,0.00001581,-0.00000241,-0.000007
 18,-0.00000826,-0.00000021,-0.00000346,-0.00000376,0.00000168,0.000001
 21,-0.00000140,-0.00000296,0.00000233,-0.00000008,-0.00000054,-0.00000
 358,0.00000126,-0.01722374,0.02563629,-0.06493264,0.04781377,-0.025291
 15,0.03885439,-0.00002438,-0.00003651,0.00002030,0.00001800,-0.0000145
 4,-0.00000758,0.00001260,0.00000243,0.00000205,-0.00002507,0.00000589,
 0.00000241,-0.00002369,-0.00019423,-0.00005684,-0.00000286,0.00000861,
 0.00002875,0.00002097,0.00018005,0.00014525,-0.00001162,-0.00026896,-0
 .00002725,0.00007210,-0.00001258,0.00002386,0.00048544,0.00090289,-0.0
 0025764,-0.00008095,0.00013719,0.00029889,-0.00086036,0.00040127,-0.00
 017048,-0.00312097,0.03098884,0.00360438,0.00112754,-0.00064071,0.0007
 9091,-0.00506569,0.00259365,-0.00203044,-0.07839876,0.00840027,0.00105
 502,-0.00019783,0.00074111,0.00010456,0.00058069,-0.02901140,-0.003511
 18,0.00083932,0.00047546,-0.00053824,0.00063529,-0.00095848,-0.0001403
 1,-0.00445456,-0.00369992,0.00214970,-0.00018741,0.00032542,0.00003453
 ,0.00005017,-0.00006621,-0.00000620,0.56802204,-0.00005149,-0.00003816
 ,0.00002233,0.00000558,-0.00000474,0.00000210,0.00000440,-0.00000097,0
 .00000140,-0.00001565,0.00001533,-0.00000202,-0.00010202,0.00010546,-0
 .00007414,0.00000337,0.00000871,0.00001069,-0.00059361,-0.00059160,0.0
 0016531,0.00017647,-0.00008578,0.00007890,0.00001919,0.00000697,0.0000
 2844,0.00042147,0.00126675,0.00000419,0.00007683,-0.00001742,-0.000098
 22,-0.00003122,-0.00066518,-0.00028832,0.00755063,-0.01696196,0.000470
 19,-0.00137744,0.00106239,-0.00073576,0.00096453,0.00086545,0.00005833
 ,0.00577696,-0.17312653,-0.01528378,0.00050099,-0.00979363,-0.00177528
 ,-0.00458789,-0.02442454,-0.00028363,0.00134084,0.00117495,-0.00072478
 ,0.00151150,0.00108726,-0.00045163,-0.00147565,-0.00030729,0.00095420,
 -0.00014565,0.00016418,-0.00003790,0.00001030,-0.00006411,-0.00000197,
 0.01365958,0.46183322,-0.00001300,-0.00002194,0.00003133,0.00000503,0.
 00000306,-0.00000760,-0.00000029,0.00000661,-0.00000803,-0.00002470,0.
 00000187,-0.00000069,-0.00001537,-0.00006534,-0.00007151,0.00001531,-0
 .00000542,-0.00000760,0.00018124,0.00036646,0.00031842,-0.00010218,0.0
 0002354,-0.00010908,-0.00002290,-0.00000143,-0.00007109,-0.00042593,-0
 .00046482,-0.00032653,-0.00012072,0.00003956,0.00012360,0.00027906,0.0
 0048086,0.00050380,-0.00123105,0.01372616,0.00150741,-0.00007911,0.001
 42487,0.00059907,-0.00271148,0.00197717,-0.00070734,0.00189464,-0.0175
 6874,-0.08166115,0.00246063,-0.03398332,-0.00455885,-0.00034197,0.0142
 8973,0.00211941,-0.00008722,0.00118771,0.00060800,-0.00061746,-0.00060
 351,0.00010855,0.00219829,0.00247299,-0.00072673,0.00022107,0.00000161
 ,0.00016969,-0.00000186,0.00006228,-0.00000453,0.00090139,-0.02015090,
 0.55597224,-0.00002407,-0.00003181,0.00002564,0.00000872,0.00000455,-0
 .00000330,0.00000514,0.00000205,-0.00000418,-0.00003108,0.00000460,0.0
 0000097,0.00000779,-0.00001046,-0.00006718,0.00001372,-0.00000419,0.00
 000243,0.00013455,0.00018253,0.00011052,-0.00011473,0.00004476,-0.0000
 4256,-0.00001274,-0.00001231,-0.00001619,-0.00000180,-0.00027186,-0.00
 031389,-0.00001235,0.00007140,0.00007337,0.00032134,0.00033151,0.00006
 775,0.00095185,0.00016460,0.00097806,0.00006137,-0.00014631,-0.0000073
 5,-0.00011752,0.00014380,-0.00013089,-0.00270095,0.00019121,-0.0005809
 0,0.00004701,0.00037580,0.00044186,0.00068523,-0.00105871,0.00022467,-
 0.00001465,0.00001230,0.00004026,0.00063268,0.00009884,-0.00010242,0.0
 0022829,0.00003779,0.00018607,0.00018403,0.00004023,0.00010996,-0.0000
 0347,0.00005295,-0.00000965,-0.23959700,0.07348477,-0.08645375,0.25985
 074,0.00002315,0.00002777,-0.00001656,-0.00000842,0.00000302,0.0000027
 1,-0.00000397,-0.00000300,0.00000200,0.00001865,-0.00000665,-0.0000008
 2,0.00004726,0.00004604,0.00004877,-0.00000736,-0.00000213,-0.00000553
 ,0.00018693,0.00019483,-0.00007509,-0.00008828,0.00011481,-0.00001739,
 -0.00001928,-0.00000860,0.00000049,-0.00076381,-0.00041701,0.00013744,
 0.00006583,0.00002687,-0.00004248,0.00020429,0.00038570,0.00003264,-0.
 00142485,-0.00657384,-0.00197829,-0.00026140,0.00012602,0.00003006,0.0
 0187626,-0.00095080,0.00069886,0.02849287,-0.01117904,0.01417828,-0.00
 017479,0.00119158,-0.00042289,0.00160201,0.00142513,0.00038430,-0.0001
 3107,-0.00006673,0.00001881,-0.00097170,-0.00027626,-0.00010268,-0.000
 10601,0.00044295,-0.00033626,0.00003556,-0.00014800,-0.00004455,-0.000
 01559,0.00001864,-0.00000301,0.07207966,-0.07340928,0.03232476,-0.0804
 6782,0.08215536,-0.00000202,-0.00000258,-0.00000026,0.00000085,0.00000
 159,0.00000105,0.00000134,-0.00000109,-0.00000028,-0.00000267,0.000000
 18,0.00000064,-0.00000407,0.00000873,-0.00000441,-0.00000162,0.0000012
 8,0.00000162,-0.00006398,-0.00011132,-0.00003851,0.00005065,-0.0000076
 8,0.00002777,0.00001727,-0.00001347,0.00002110,0.00014233,0.00002974,0
 .00016197,-0.00003776,0.00003371,0.00000606,-0.00008220,-0.00011867,-0
 .00015405,0.00008944,-0.00061668,0.00028033,0.00026971,-0.00023907,0.0
 0045589,0.00001750,0.00000800,0.00046121,0.00507624,-0.00207416,0.0011
 0419,0.00037395,0.00043983,0.00036718,-0.00024016,0.00018607,-0.000059
 10,-0.00015855,0.00004738,-0.00007948,0.00021343,0.00027451,0.00023645
 ,0.00025864,-0.00008011,-0.00006760,0.00000643,0.00000324,-0.00000320,
 -0.00000398,0.00000172,-0.00000350,-0.08621884,0.03297281,-0.08559842,
 0.09504396,-0.03547891,0.08866163,0.00000020,0.00000300,-0.00000580,-0
 .00000096,-0.00000451,0.00000012,-0.00000304,0.00000221,-0.00000072,0.
 00000601,0.00000075,0.00000049,-0.00000565,-0.00000345,0.00001526,0.00
 000577,-0.00000128,-0.00000905,0.00000135,-0.00001350,-0.00001534,0.00
 001230,-0.00000032,-0.00000081,-0.00003365,0.00002731,-0.00003697,-0.0
 0015359,0.00003232,-0.00005543,0.00009739,-0.00013724,-0.00012298,-0.0
 0011663,-0.00004392,0.00018251,0.00041265,0.00005175,0.00131327,0.0001
 7254,0.00008253,-0.00024002,0.00000754,-0.00012300,-0.00015171,-0.0011
 7616,0.00109399,0.00305416,0.00060697,0.00074503,0.00013045,0.00004758
 ,-0.00021020,-0.00095949,0.00021060,-0.00019027,0.00015387,0.00001284,
 -0.00001712,-0.00014090,-0.00009822,0.00009086,0.00016768,-0.00003948,
 0.00003130,-0.00001085,0.00000691,-0.00001591,0.00001197,-0.04748525,-
 0.00102733,-0.00301296,0.00038068,-0.00667609,-0.02798958,0.04624821,0
 .00000134,-0.00000215,-0.00000339,0.00000019,0.00000103,-0.00000122,0.
 00000126,0.00000141,0.00000065,-0.00000091,-0.00000100,0.00000093,0.00
 001158,-0.00001270,0.00001205,-0.00000518,-0.00000407,0.00000089,0.000
 05579,0.00004474,-0.00000617,-0.00000825,0.00000590,-0.00000862,0.0000
 2797,-0.00000651,0.00001259,0.00012205,-0.00001329,0.00008636,-0.00017
 961,-0.00004368,0.00011093,0.00007527,-0.00000713,-0.00000150,-0.00098
 003,0.00176297,-0.00129402,0.00040723,-0.00009680,0.00089632,-0.000303
 12,0.00035460,0.00036226,-0.00015887,-0.00866561,-0.03364535,0.0005130
 0,-0.00664506,-0.00074852,0.00075963,0.00159832,-0.00112268,-0.0003847
 8,0.00006282,0.00095648,-0.00006737,-0.00008679,0.00008851,0.00018132,
 0.00030333,0.00039535,0.00001444,0.00000172,0.00000898,0.00000258,0.00
 000828,0.00000449,-0.00097224,-0.05813811,-0.05214337,-0.00085359,0.00
 162689,0.01049774,0.00022238,0.06475961,0.00001584,0.00001674,-0.00000
 780,-0.00000410,0.00000641,0.00000007,0.00000146,-0.00000445,0.0000064
 3,0.00000909,-0.00000523,-0.00000162,0.00001491,0.00001089,0.00000344,
 -0.00001424,0.00000254,0.00001383,-0.00001809,0.00002331,-0.00004631,0
 .00000637,0.00000084,0.00000879,0.00003806,-0.00002496,0.00004627,0.00
 017449,-0.00017609,0.00007833,-0.00010180,0.00010780,0.00010525,0.0000
 9393,-0.00002053,-0.00023073,-0.00034872,0.00059526,0.00067354,0.00058
 365,-0.00039352,0.00046116,0.00007114,-0.00000471,0.00031923,0.0002970
 4,-0.00189490,-0.00605204,0.00002143,-0.00106659,0.00154244,0.00008213
 ,0.00049869,0.00065022,-0.00049976,-0.00041960,0.00044053,0.00006101,0
 .00000250,-0.00004679,-0.00006005,-0.00007209,0.00032358,-0.00002658,-
 0.00010420,-0.00004569,-0.00001184,0.00000283,-0.00001298,-0.00314886,
 -0.05235352,-0.28868503,0.00019139,-0.00205174,-0.01158882,0.00329955,
 0.05983855,0.31538379,0.00001905,0.00001504,-0.00001091,-0.00000410,0.
 00000136,0.00000206,-0.00000348,-0.00000068,-0.00000171,0.00001211,-0.
 00000490,-0.00000011,0.00003688,-0.00001247,0.00003882,-0.00000353,-0.
 00000268,-0.00000683,0.00011736,0.00020744,-0.00004124,-0.00006016,0.0
 0005535,-0.00002318,-0.00000374,-0.00000082,-0.00000669,-0.00106103,0.
 00038333,-0.00018176,-0.00000472,-0.00003748,0.00005038,-0.00122931,0.
 00122431,-0.00014098,0.00004928,-0.00039226,-0.00031333,-0.00004354,0.
 00005694,-0.00002669,0.00012848,-0.00011512,0.00011719,0.00263646,0.00
 188974,-0.00248499,0.00023186,-0.00058117,-0.00036649,0.00050713,-0.00
 006361,-0.00050481,-0.00003676,0.00013202,0.00000324,0.00046262,0.0002
 2117,0.00010750,0.00021606,0.00002061,0.00023880,-0.00001526,-0.000048
 38,-0.00002805,-0.00001108,-0.00000969,-0.00000105,-0.19236120,-0.0961
 8327,0.08730074,-0.02071190,-0.01353824,0.01325127,0.00085130,0.001533
 38,-0.00077037,0.21024832,-0.00001919,-0.00002724,0.00001552,0.0000063
 1,0.00000392,-0.00000011,0.00000097,0.00000271,-0.00000678,-0.00002343
 ,0.00000304,0.00000188,0.00006182,-0.00001247,-0.00003327,0.00001850,-
 0.00001100,-0.00001044,0.00038170,0.00040762,0.00002664,-0.00021349,0.
 00012948,-0.00006438,-0.00007436,0.00000416,-0.00006900,0.00001500,-0.
 00053683,-0.00009475,0.00008333,-0.00013560,-0.00011970,0.00093247,0.0
 0054625,0.00026795,-0.00092375,0.00086385,0.00027130,0.00012403,-0.000
 05874,-0.00002482,-0.00003406,0.00010648,-0.00017343,-0.02539909,-0.01
 387253,0.01548659,0.00006370,0.00133176,-0.00045638,0.00234275,-0.0064
 9301,-0.00194486,0.00023873,0.00013820,0.00010495,0.00004180,0.0002107
 5,-0.00024249,-0.00172637,-0.00117186,0.00083325,0.00019525,-0.0000043
 4,0.00010221,-0.00000357,0.00006851,0.00000525,-0.09489605,-0.10991527
 ,0.05665403,0.00765918,0.00519404,-0.00576032,0.00609026,0.00319633,-0
 .00256468,0.10522095,0.12005547,-0.00000101,-0.00000088,-0.00001762,0.
 00000084,-0.00001017,0.00000181,-0.00000135,0.00000276,0.00000111,0.00
 001054,0.00000301,0.00000238,-0.00001495,-0.00001906,0.00004588,0.0000
 0183,-0.00000079,-0.00000662,-0.00017953,-0.00031740,-0.00014411,0.000
 11681,-0.00010198,0.00004932,-0.00000875,0.00003791,-0.00000729,0.0004
 6784,0.00064827,0.00046591,0.00000986,-0.00017473,-0.00017631,-0.00045
 041,-0.00044112,0.00014936,0.00052997,0.00047811,-0.00011478,0.0000560
 0,0.00005024,0.00000523,-0.00015036,-0.00002417,-0.00001319,-0.0053318
 1,-0.00289443,0.00134724,-0.00043381,0.00044231,0.00055230,-0.00010705
 ,-0.00088872,0.00044000,-0.00023727,-0.00030073,0.00042342,0.00029830,
 -0.00001101,-0.00005989,-0.00002097,-0.00025630,0.00055139,-0.00018234
 ,0.00013791,-0.00006820,0.00002187,-0.00005875,0.00002275,0.08696975,0
 .05746362,-0.09938040,-0.00967889,-0.00731973,0.00580695,0.02442112,0.
 01571150,-0.01338881,-0.09622212,-0.06211621,0.10346958,-0.00276048,0.
 00268763,0.00142581,0.00174896,0.00030238,0.00063382,0.00049687,-0.001
 17648,0.00119445,0.00215886,-0.00077882,-0.00121593,-0.01629180,-0.024
 48045,-0.02314468,-0.00001430,-0.00296922,0.00072173,0.00463458,0.0005
 7221,-0.00235228,-0.00099409,-0.00058830,0.00079933,-0.00054450,0.0002
 2964,0.00122748,-0.00114469,0.00118774,0.00070003,0.00019098,-0.000043
 59,0.00005450,0.00056987,-0.00108374,-0.00040857,0.00027686,-0.0002583
 4,-0.00052311,-0.00008747,0.00002670,0.00014476,-0.00018750,-0.0002318
 4,0.00010731,0.00014297,-0.00015450,0.00030860,0.00001423,0.00002431,-
 0.00001216,-0.00009102,0.00011075,-0.00013085,0.00001377,0.00000024,0.
 00004801,-0.00015087,0.00001014,-0.00000404,0.00002980,-0.00003242,0.0
 0000768,-0.58925880,-0.14418659,-0.26448288,-0.04337211,0.00075447,-0.
 02928889,0.00003344,0.00008380,-0.00019541,-0.00017089,0.00002619,-0.0
 0000756,0.00003179,-0.00001546,0.00004290,0.00003290,-0.00016343,0.000
 11588,0.64469264,-0.00170829,0.00269785,-0.00036359,-0.00148400,0.0005
 0814,-0.00052518,0.00050442,0.00014596,-0.00033810,-0.00043518,-0.0008
 3249,0.00052209,-0.04118644,-0.00611386,-0.02397081,-0.00240103,-0.005
 63731,-0.00239093,0.00160120,-0.00468460,-0.00385222,-0.00190763,-0.00
 037107,0.00114542,-0.00001256,0.00024215,0.00083364,0.00028009,-0.0013
 2796,0.00027368,0.00007600,0.00012581,0.00012133,-0.00041174,0.0008264
 1,0.00004525,-0.00040358,0.00068623,-0.00023749,-0.00003005,-0.0000485
 2,0.00005862,0.00023665,0.00016331,-0.00006367,0.00001561,-0.00018659,
 0.00020786,0.00000275,0.00002182,0.00000024,-0.00008695,0.00011343,-0.
 00007498,0.00000982,-0.00001197,0.00002404,-0.00009576,-0.00000956,-0.
 00000155,0.00003530,0.00002422,0.00000229,-0.13857164,-0.14863775,-0.0
 7720886,0.01598275,0.02262481,0.00765787,-0.00013048,-0.00004613,-0.00
 003447,-0.00004582,0.00006170,-0.00000250,-0.00000955,-0.00000503,0.00
 005044,0.00002913,-0.00002370,-0.00003947,0.17014699,0.13969471,-0.000
 31117,0.00194929,-0.00218537,0.00040426,0.00009988,0.00052943,0.000103
 65,-0.00103575,0.00106499,0.00022633,-0.00014357,-0.00010877,-0.026056
 34,-0.01626602,0.01032464,0.00109684,0.00250498,0.00037991,0.00339095,
 -0.00497228,-0.00426742,-0.00217679,-0.00049264,0.00136621,-0.00055379
 ,-0.00004710,0.00091352,-0.00024700,0.00018826,0.00068360,0.00009442,-
 0.00004397,-0.00004353,0.00019902,-0.00031134,-0.00029014,-0.00010115,
 0.00002576,-0.00045724,-0.00005267,0.00001005,0.00012109,-0.00000825,-
 0.00000788,0.00005064,0.00006796,-0.00009868,0.00025095,0.00000964,0.0
 0001875,0.00000141,-0.00006844,0.00008103,-0.00009746,0.00000528,-0.00
 000058,0.00003625,-0.00009575,-0.00000103,0.00000164,0.00002249,-0.000
 00776,0.00000420,-0.26367554,-0.08040606,-0.19800084,-0.02642782,0.000
 82725,0.00787216,-0.00001787,0.00002932,-0.00013690,-0.00008576,0.0000
 3682,0.00000359,0.00000213,-0.00000976,0.00004973,0.00002128,-0.000087
 98,0.00004260,0.31423407,0.09816102,0.18189109\\-0.00000119,-0.0000039
 6,-0.00000319,-0.00000242,-0.00000299,-0.00000416,-0.00000078,-0.00000
 500,-0.00000336,-0.00000114,-0.00000425,-0.00000333,-0.00000062,-0.000
 00234,-0.00000166,-0.00000067,-0.00000098,-0.00000147,-0.00000046,-0.0
 0000155,-0.00000147,-0.00000167,-0.00000139,-0.00000258,0.00000018,-0.
 00000283,-0.00000121,0.00000002,0.00000030,0.00000009,-0.00000078,0.00
 000142,-0.00000010,0.00000076,-0.00000019,0.00000141,-0.00000014,0.000
 00100,0.00000034,0.00000041,-0.00000048,0.00000035,-0.00000139,0.00000
 096,-0.00000120,0.00000002,0.00000320,0.00000179,-0.00000077,0.0000038
 3,0.00000118,-0.00000036,0.00000332,0.00000111,0.00000021,0.00000244,0
 .00000156,-0.00000031,0.00000476,0.00000208,-0.00000168,0.00000359,-0.
 00000005,0.00000087,-0.00000290,-0.00000046,0.00000212,-0.00000188,0.0
 0000117,0.00000148,0.00000162,0.00000241,0.00000171,0.00000417,0.00000
 401,0.00000261,0.00000227,0.00000358,0.00000188,0.00000249,0.00000330,
 0.00000208,-0.00000463,-0.00000014\\\@
 Job cpu time:  0 days  2 hours 19 minutes 50.0 seconds.
 File lengths (MBytes):  RWF=  41462 Int=      0 D2E=      0 Chk=     25 Scr=      1
 Normal termination of Gaussian 09 at Sat Feb  8 00:53:39 2014.
