 Entering Gaussian System, Link 0=g09
 Initial command:
 /usr/caen/gaussian-09revc/g09/l1.exe /scratch/avioli_flux/hetanjin/scratch/Gau-17057.inp -scrdir=/scratch/avioli_flux/hetanjin/scratch/
 Entering Link 1 = /usr/caen/gaussian-09revc/g09/l1.exe PID=     17125.
  
 Copyright (c) 1988,1990,1992,1993,1995,1998,2003,2009,2011,
            Gaussian, Inc.  All Rights Reserved.
  
 This is part of the Gaussian(R) 09 program.  It is based on
 the Gaussian(R) 03 system (copyright 2003, Gaussian, Inc.),
 the Gaussian(R) 98 system (copyright 1998, Gaussian, Inc.),
 the Gaussian(R) 94 system (copyright 1995, Gaussian, Inc.),
 the Gaussian 92(TM) system (copyright 1992, Gaussian, Inc.),
 the Gaussian 90(TM) system (copyright 1990, Gaussian, Inc.),
 the Gaussian 88(TM) system (copyright 1988, Gaussian, Inc.),
 the Gaussian 86(TM) system (copyright 1986, Carnegie Mellon
 University), and the Gaussian 82(TM) system (copyright 1983,
 Carnegie Mellon University). Gaussian is a federally registered
 trademark of Gaussian, Inc.
  
 This software contains proprietary and confidential information,
 including trade secrets, belonging to Gaussian, Inc.
  
 This software is provided under written license and may be
 used, copied, transmitted, or stored only in accord with that
 written license.
  
 The following legend is applicable only to US Government
 contracts under FAR:
  
                    RESTRICTED RIGHTS LEGEND
  
 Use, reproduction and disclosure by the US Government is
 subject to restrictions as set forth in subparagraphs (a)
 and (c) of the Commercial Computer Software - Restricted
 Rights clause in FAR 52.227-19.
  
 Gaussian, Inc.
 340 Quinnipiac St., Bldg. 40, Wallingford CT 06492
  
  
 ---------------------------------------------------------------
 Warning -- This program may not be used in any manner that
 competes with the business of Gaussian, Inc. or will provide
 assistance to any competitor of Gaussian, Inc.  The licensee
 of this program is prohibited from giving any competitor of
 Gaussian, Inc. access to this program.  By using this program,
 the user acknowledges that Gaussian, Inc. is engaged in the
 business of creating and licensing software in the field of
 computational chemistry and represents and warrants to the
 licensee that it is not a competitor of Gaussian, Inc. and that
 it will not use this program in any manner prohibited above.
 ---------------------------------------------------------------
  

 Cite this work as:
 Gaussian 09, Revision C.01,
 M. J. Frisch, G. W. Trucks, H. B. Schlegel, G. E. Scuseria, 
 M. A. Robb, J. R. Cheeseman, G. Scalmani, V. Barone, B. Mennucci, 
 G. A. Petersson, H. Nakatsuji, M. Caricato, X. Li, H. P. Hratchian, 
 A. F. Izmaylov, J. Bloino, G. Zheng, J. L. Sonnenberg, M. Hada, 
 M. Ehara, K. Toyota, R. Fukuda, J. Hasegawa, M. Ishida, T. Nakajima, 
 Y. Honda, O. Kitao, H. Nakai, T. Vreven, J. A. Montgomery, Jr., 
 J. E. Peralta, F. Ogliaro, M. Bearpark, J. J. Heyd, E. Brothers, 
 K. N. Kudin, V. N. Staroverov, T. Keith, R. Kobayashi, J. Normand, 
 K. Raghavachari, A. Rendell, J. C. Burant, S. S. Iyengar, J. Tomasi, 
 M. Cossi, N. Rega, J. M. Millam, M. Klene, J. E. Knox, J. B. Cross, 
 V. Bakken, C. Adamo, J. Jaramillo, R. Gomperts, R. E. Stratmann, 
 O. Yazyev, A. J. Austin, R. Cammi, C. Pomelli, J. W. Ochterski, 
 R. L. Martin, K. Morokuma, V. G. Zakrzewski, G. A. Voth, 
 P. Salvador, J. J. Dannenberg, S. Dapprich, A. D. Daniels, 
 O. Farkas, J. B. Foresman, J. V. Ortiz, J. Cioslowski, 
 and D. J. Fox, Gaussian, Inc., Wallingford CT, 2010.
 
 ******************************************
 Gaussian 09:  EM64L-G09RevC.01 23-Sep-2011
                25-Feb-2014 
 ******************************************
 %mem=30GB
 %nprocshared=8
 Will use up to    8 processors via shared memory.
 %chk=TS_1_1h.chk
 -------------------------------
 #p cbs-qb3 opt=(TS,calcfc) freq
 -------------------------------
 1/5=1,10=4,14=-1,18=20,26=3,38=1/1,3;
 2/9=110,12=2,17=6,18=5,40=1/2;
 3/5=4,6=6,7=700,11=2,16=1,25=1,30=1,71=2,74=-5/1,2,3;
 4//1;
 5/5=2,38=5/2;
 8/6=4,10=90,11=11/1;
 11/6=1,8=1,9=11,15=111,16=1/1,2,10;
 10/6=1,7=6,13=1/2;
 6/7=2,8=2,9=2,10=2,28=1/1;
 7/10=1,18=20,25=1/1,2,3,16;
 1/5=1,10=4,14=-1,18=20/3(2);
 2/9=110/2;
 99//99;
 2/9=110/2;
 3/5=4,6=6,7=700,11=2,16=1,25=1,30=1,71=1,74=-5/1,2,3;
 4/5=5,16=3/1;
 5/5=2,38=5/2;
 7//1,2,3,16;
 1/5=1,14=-1,18=20/3(-5);
 2/9=110/2;
 6/7=2,8=2,9=2,10=2,19=2,28=1/1;
 99/9=1/99;
 Leave Link    1 at Tue Feb 25 10:24:33 2014, MaxMem= 4026531840 cpu:       0.4
 (Enter /usr/caen/gaussian-09revc/g09/l101.exe)
 ------------------------------------
 TS_1_1h using cbs-qb3 to cal. energy
 ------------------------------------
 Charge =  0 Multiplicity = 2
 Symbolic Z-Matrix:
 C                    -3.46553  -0.1779   -0.61314 
 H                    -4.00406  -1.12515  -0.70913 
 H                    -3.1062    0.10579  -1.6061 
 H                    -4.18023   0.58158  -0.28338 
 C                    -2.29626  -0.3111    0.37366 
 H                    -2.71674  -0.52809   1.36566 
 C                    -1.38772  -1.50672  -0.02493 
 H                    -1.94667  -2.41792   0.2116 
 H                    -1.27521  -1.50475  -1.11409 
 C                     0.02169  -1.57149   0.61495 
 H                     0.2142   -2.58855   0.97007 
 H                     0.04697  -0.94937   1.5146 
 C                     1.14795  -1.16285  -0.36355 
 H                     0.7398   -0.48846  -1.11926 
 H                     1.48641  -2.05542  -0.90155 
 C                     2.39094  -0.47564   0.24908 
 H                     2.80717  -1.1518    1.01592 
 C                     3.46377  -0.26492  -0.82896 
 H                     3.09581   0.40218  -1.61484 
 H                     4.36973   0.17932  -0.40709 
 H                     3.74111  -1.213    -1.29766 
 C                    -1.55553   1.01563   0.56626 
 H                    -2.25862   1.84194   0.72454 
 H                    -0.89328   0.96716   1.43358 
 C                     2.06115   0.82349   0.9556 
 H                     2.86356   1.56018   1.00471 
 H                     1.10606   1.56743   0.21303 
 H                     1.52325   0.74136   1.89881 
 O                    -0.75293   1.28296  -0.59331 
 O                     0.26595   2.20011  -0.26586 
 
 NAtoms=     30 NQM=        0 NQMF=       0 NMMI=     30 NMMIF=      0
                NMic=       0 NMicF=      0.
                    Isotopes and Nuclear Properties:
 (Nuclear quadrupole moments (NQMom) in fm**2, nuclear magnetic moments (NMagM)
  in nuclear magnetons)

  Atom         1           2           3           4           5           6           7           8           9          10
 IAtWgt=          12           1           1           1          12           1          12           1           1          12
 AtmWgt=  12.0000000   1.0078250   1.0078250   1.0078250  12.0000000   1.0078250  12.0000000   1.0078250   1.0078250  12.0000000
 NucSpn=           0           1           1           1           0           1           0           1           1           0
 AtZEff=   0.0000000   0.0000000   0.0000000   0.0000000   0.0000000   0.0000000   0.0000000   0.0000000   0.0000000   0.0000000
 NQMom=    0.0000000   0.0000000   0.0000000   0.0000000   0.0000000   0.0000000   0.0000000   0.0000000   0.0000000   0.0000000
 NMagM=    0.0000000   2.7928460   2.7928460   2.7928460   0.0000000   2.7928460   0.0000000   2.7928460   2.7928460   0.0000000

  Atom        11          12          13          14          15          16          17          18          19          20
 IAtWgt=           1           1          12           1           1          12           1          12           1           1
 AtmWgt=   1.0078250   1.0078250  12.0000000   1.0078250   1.0078250  12.0000000   1.0078250  12.0000000   1.0078250   1.0078250
 NucSpn=           1           1           0           1           1           0           1           0           1           1
 AtZEff=   0.0000000   0.0000000   0.0000000   0.0000000   0.0000000   0.0000000   0.0000000   0.0000000   0.0000000   0.0000000
 NQMom=    0.0000000   0.0000000   0.0000000   0.0000000   0.0000000   0.0000000   0.0000000   0.0000000   0.0000000   0.0000000
 NMagM=    2.7928460   2.7928460   0.0000000   2.7928460   2.7928460   0.0000000   2.7928460   0.0000000   2.7928460   2.7928460

  Atom        21          22          23          24          25          26          27          28          29          30
 IAtWgt=           1          12           1           1          12           1           1           1          16          16
 AtmWgt=   1.0078250  12.0000000   1.0078250   1.0078250  12.0000000   1.0078250   1.0078250   1.0078250  15.9949146  15.9949146
 NucSpn=           1           0           1           1           0           1           1           1           0           0
 AtZEff=   0.0000000   0.0000000   0.0000000   0.0000000   0.0000000   0.0000000   0.0000000   0.0000000   0.0000000   0.0000000
 NQMom=    0.0000000   0.0000000   0.0000000   0.0000000   0.0000000   0.0000000   0.0000000   0.0000000   0.0000000   0.0000000
 NMagM=    2.7928460   0.0000000   2.7928460   2.7928460   0.0000000   2.7928460   2.7928460   2.7928460   0.0000000   0.0000000
 Leave Link  101 at Tue Feb 25 10:24:34 2014, MaxMem= 4026531840 cpu:       2.0
 (Enter /usr/caen/gaussian-09revc/g09/l103.exe)

 GradGradGradGradGradGradGradGradGradGradGradGradGradGradGradGradGradGrad
 Berny optimization.
 Initialization pass.
                           ----------------------------
                           !    Initial Parameters    !
                           ! (Angstroms and Degrees)  !
 --------------------------                            --------------------------
 ! Name  Definition              Value          Derivative Info.                !
 --------------------------------------------------------------------------------
 ! R1    R(1,2)                  1.0939         calculate D2E/DX2 analytically  !
 ! R2    R(1,3)                  1.0934         calculate D2E/DX2 analytically  !
 ! R3    R(1,4)                  1.0938         calculate D2E/DX2 analytically  !
 ! R4    R(1,5)                  1.5358         calculate D2E/DX2 analytically  !
 ! R5    R(5,6)                  1.0991         calculate D2E/DX2 analytically  !
 ! R6    R(5,7)                  1.5536         calculate D2E/DX2 analytically  !
 ! R7    R(5,22)                 1.5317         calculate D2E/DX2 analytically  !
 ! R8    R(7,8)                  1.0948         calculate D2E/DX2 analytically  !
 ! R9    R(7,9)                  1.095          calculate D2E/DX2 analytically  !
 ! R10   R(7,10)                 1.5492         calculate D2E/DX2 analytically  !
 ! R11   R(10,11)                1.0943         calculate D2E/DX2 analytically  !
 ! R12   R(10,12)                1.0941         calculate D2E/DX2 analytically  !
 ! R13   R(10,13)                1.5469         calculate D2E/DX2 analytically  !
 ! R14   R(13,14)                1.092          calculate D2E/DX2 analytically  !
 ! R15   R(13,15)                1.0958         calculate D2E/DX2 analytically  !
 ! R16   R(13,16)                1.5468         calculate D2E/DX2 analytically  !
 ! R17   R(16,17)                1.1038         calculate D2E/DX2 analytically  !
 ! R18   R(16,18)                1.5354         calculate D2E/DX2 analytically  !
 ! R19   R(16,25)                1.5151         calculate D2E/DX2 analytically  !
 ! R20   R(18,19)                1.0945         calculate D2E/DX2 analytically  !
 ! R21   R(18,20)                1.0937         calculate D2E/DX2 analytically  !
 ! R22   R(18,21)                1.0934         calculate D2E/DX2 analytically  !
 ! R23   R(22,23)                1.0964         calculate D2E/DX2 analytically  !
 ! R24   R(22,24)                1.0923         calculate D2E/DX2 analytically  !
 ! R25   R(22,29)                1.4354         calculate D2E/DX2 analytically  !
 ! R26   R(25,26)                1.0904         calculate D2E/DX2 analytically  !
 ! R27   R(25,28)                1.0889         calculate D2E/DX2 analytically  !
 ! R28   R(27,30)                1.1556         calculate D2E/DX2 analytically  !
 ! R29   R(29,30)                1.4094         calculate D2E/DX2 analytically  !
 ! A1    A(2,1,3)              107.8652         calculate D2E/DX2 analytically  !
 ! A2    A(2,1,4)              107.8222         calculate D2E/DX2 analytically  !
 ! A3    A(2,1,5)              110.8613         calculate D2E/DX2 analytically  !
 ! A4    A(3,1,4)              107.9608         calculate D2E/DX2 analytically  !
 ! A5    A(3,1,5)              110.8424         calculate D2E/DX2 analytically  !
 ! A6    A(4,1,5)              111.3451         calculate D2E/DX2 analytically  !
 ! A7    A(1,5,6)              107.805          calculate D2E/DX2 analytically  !
 ! A8    A(1,5,7)              110.3109         calculate D2E/DX2 analytically  !
 ! A9    A(1,5,22)             111.954          calculate D2E/DX2 analytically  !
 ! A10   A(6,5,7)              107.6594         calculate D2E/DX2 analytically  !
 ! A11   A(6,5,22)             104.0364         calculate D2E/DX2 analytically  !
 ! A12   A(7,5,22)             114.5852         calculate D2E/DX2 analytically  !
 ! A13   A(5,7,8)              106.6486         calculate D2E/DX2 analytically  !
 ! A14   A(5,7,9)              108.2945         calculate D2E/DX2 analytically  !
 ! A15   A(5,7,10)             117.2719         calculate D2E/DX2 analytically  !
 ! A16   A(8,7,9)              105.596          calculate D2E/DX2 analytically  !
 ! A17   A(8,7,10)             109.903          calculate D2E/DX2 analytically  !
 ! A18   A(9,7,10)             108.5088         calculate D2E/DX2 analytically  !
 ! A19   A(7,10,11)            109.4468         calculate D2E/DX2 analytically  !
 ! A20   A(7,10,12)            109.6868         calculate D2E/DX2 analytically  !
 ! A21   A(7,10,13)            112.9577         calculate D2E/DX2 analytically  !
 ! A22   A(11,10,12)           104.9255         calculate D2E/DX2 analytically  !
 ! A23   A(11,10,13)           108.8261         calculate D2E/DX2 analytically  !
 ! A24   A(12,10,13)           110.6775         calculate D2E/DX2 analytically  !
 ! A25   A(10,13,14)           109.1941         calculate D2E/DX2 analytically  !
 ! A26   A(10,13,15)           108.6803         calculate D2E/DX2 analytically  !
 ! A27   A(10,13,16)           116.8657         calculate D2E/DX2 analytically  !
 ! A28   A(14,13,15)           106.1839         calculate D2E/DX2 analytically  !
 ! A29   A(14,13,16)           107.4612         calculate D2E/DX2 analytically  !
 ! A30   A(15,13,16)           107.9473         calculate D2E/DX2 analytically  !
 ! A31   A(13,16,17)           107.8186         calculate D2E/DX2 analytically  !
 ! A32   A(13,16,18)           110.1433         calculate D2E/DX2 analytically  !
 ! A33   A(13,16,25)           112.9987         calculate D2E/DX2 analytically  !
 ! A34   A(17,16,18)           107.9603         calculate D2E/DX2 analytically  !
 ! A35   A(17,16,25)           106.4603         calculate D2E/DX2 analytically  !
 ! A36   A(18,16,25)           111.2116         calculate D2E/DX2 analytically  !
 ! A37   A(16,18,19)           110.663          calculate D2E/DX2 analytically  !
 ! A38   A(16,18,20)           111.3282         calculate D2E/DX2 analytically  !
 ! A39   A(16,18,21)           111.0521         calculate D2E/DX2 analytically  !
 ! A40   A(19,18,20)           107.9313         calculate D2E/DX2 analytically  !
 ! A41   A(19,18,21)           107.8168         calculate D2E/DX2 analytically  !
 ! A42   A(20,18,21)           107.9054         calculate D2E/DX2 analytically  !
 ! A43   A(5,22,23)            111.1515         calculate D2E/DX2 analytically  !
 ! A44   A(5,22,24)            110.7695         calculate D2E/DX2 analytically  !
 ! A45   A(5,22,29)            109.2786         calculate D2E/DX2 analytically  !
 ! A46   A(23,22,24)           107.9149         calculate D2E/DX2 analytically  !
 ! A47   A(23,22,29)           109.5619         calculate D2E/DX2 analytically  !
 ! A48   A(24,22,29)           108.1015         calculate D2E/DX2 analytically  !
 ! A49   A(16,25,26)           116.1113         calculate D2E/DX2 analytically  !
 ! A50   A(16,25,28)           116.5361         calculate D2E/DX2 analytically  !
 ! A51   A(26,25,28)           112.0522         calculate D2E/DX2 analytically  !
 ! A52   A(22,29,30)           109.7386         calculate D2E/DX2 analytically  !
 ! A53   A(27,30,29)           105.3999         calculate D2E/DX2 analytically  !
 ! D1    D(2,1,5,6)            -64.072          calculate D2E/DX2 analytically  !
 ! D2    D(2,1,5,7)             53.2257         calculate D2E/DX2 analytically  !
 ! D3    D(2,1,5,22)          -177.9076         calculate D2E/DX2 analytically  !
 ! D4    D(3,1,5,6)            176.1677         calculate D2E/DX2 analytically  !
 ! D5    D(3,1,5,7)            -66.5346         calculate D2E/DX2 analytically  !
 ! D6    D(3,1,5,22)            62.3321         calculate D2E/DX2 analytically  !
 ! D7    D(4,1,5,6)             55.9666         calculate D2E/DX2 analytically  !
 ! D8    D(4,1,5,7)            173.2643         calculate D2E/DX2 analytically  !
 ! D9    D(4,1,5,22)           -57.869          calculate D2E/DX2 analytically  !
 ! D10   D(1,5,7,8)            -72.0344         calculate D2E/DX2 analytically  !
 ! D11   D(1,5,7,9)             41.1954         calculate D2E/DX2 analytically  !
 ! D12   D(1,5,7,10)           164.3294         calculate D2E/DX2 analytically  !
 ! D13   D(6,5,7,8)             45.3534         calculate D2E/DX2 analytically  !
 ! D14   D(6,5,7,9)            158.5832         calculate D2E/DX2 analytically  !
 ! D15   D(6,5,7,10)           -78.2829         calculate D2E/DX2 analytically  !
 ! D16   D(22,5,7,8)           160.5399         calculate D2E/DX2 analytically  !
 ! D17   D(22,5,7,9)           -86.2303         calculate D2E/DX2 analytically  !
 ! D18   D(22,5,7,10)           36.9036         calculate D2E/DX2 analytically  !
 ! D19   D(1,5,22,23)           46.473          calculate D2E/DX2 analytically  !
 ! D20   D(1,5,22,24)          166.4387         calculate D2E/DX2 analytically  !
 ! D21   D(1,5,22,29)          -74.5691         calculate D2E/DX2 analytically  !
 ! D22   D(6,5,22,23)          -69.6697         calculate D2E/DX2 analytically  !
 ! D23   D(6,5,22,24)           50.296          calculate D2E/DX2 analytically  !
 ! D24   D(6,5,22,29)          169.2883         calculate D2E/DX2 analytically  !
 ! D25   D(7,5,22,23)          173.0561         calculate D2E/DX2 analytically  !
 ! D26   D(7,5,22,24)          -66.9782         calculate D2E/DX2 analytically  !
 ! D27   D(7,5,22,29)           52.014          calculate D2E/DX2 analytically  !
 ! D28   D(5,7,10,11)          134.0054         calculate D2E/DX2 analytically  !
 ! D29   D(5,7,10,12)           19.396          calculate D2E/DX2 analytically  !
 ! D30   D(5,7,10,13)         -104.5804         calculate D2E/DX2 analytically  !
 ! D31   D(8,7,10,11)           12.037          calculate D2E/DX2 analytically  !
 ! D32   D(8,7,10,12)         -102.5724         calculate D2E/DX2 analytically  !
 ! D33   D(8,7,10,13)          133.4512         calculate D2E/DX2 analytically  !
 ! D34   D(9,7,10,11)         -102.9701         calculate D2E/DX2 analytically  !
 ! D35   D(9,7,10,12)          142.4205         calculate D2E/DX2 analytically  !
 ! D36   D(9,7,10,13)           18.4441         calculate D2E/DX2 analytically  !
 ! D37   D(7,10,13,14)          26.2507         calculate D2E/DX2 analytically  !
 ! D38   D(7,10,13,15)         -89.1685         calculate D2E/DX2 analytically  !
 ! D39   D(7,10,13,16)         148.4262         calculate D2E/DX2 analytically  !
 ! D40   D(11,10,13,14)        148.0152         calculate D2E/DX2 analytically  !
 ! D41   D(11,10,13,15)         32.5959         calculate D2E/DX2 analytically  !
 ! D42   D(11,10,13,16)        -89.8094         calculate D2E/DX2 analytically  !
 ! D43   D(12,10,13,14)        -97.1797         calculate D2E/DX2 analytically  !
 ! D44   D(12,10,13,15)        147.4011         calculate D2E/DX2 analytically  !
 ! D45   D(12,10,13,16)         24.9958         calculate D2E/DX2 analytically  !
 ! D46   D(10,13,16,17)         56.8026         calculate D2E/DX2 analytically  !
 ! D47   D(10,13,16,18)        174.3768         calculate D2E/DX2 analytically  !
 ! D48   D(10,13,16,25)        -60.5688         calculate D2E/DX2 analytically  !
 ! D49   D(14,13,16,17)        179.8748         calculate D2E/DX2 analytically  !
 ! D50   D(14,13,16,18)        -62.551          calculate D2E/DX2 analytically  !
 ! D51   D(14,13,16,25)         62.5034         calculate D2E/DX2 analytically  !
 ! D52   D(15,13,16,17)        -65.9822         calculate D2E/DX2 analytically  !
 ! D53   D(15,13,16,18)         51.592          calculate D2E/DX2 analytically  !
 ! D54   D(15,13,16,25)        176.6464         calculate D2E/DX2 analytically  !
 ! D55   D(13,16,18,19)         62.5267         calculate D2E/DX2 analytically  !
 ! D56   D(13,16,18,20)       -177.441          calculate D2E/DX2 analytically  !
 ! D57   D(13,16,18,21)        -57.1798         calculate D2E/DX2 analytically  !
 ! D58   D(17,16,18,19)       -179.9869         calculate D2E/DX2 analytically  !
 ! D59   D(17,16,18,20)        -59.9546         calculate D2E/DX2 analytically  !
 ! D60   D(17,16,18,21)         60.3066         calculate D2E/DX2 analytically  !
 ! D61   D(25,16,18,19)        -63.543          calculate D2E/DX2 analytically  !
 ! D62   D(25,16,18,20)         56.4892         calculate D2E/DX2 analytically  !
 ! D63   D(25,16,18,21)        176.7504         calculate D2E/DX2 analytically  !
 ! D64   D(13,16,25,26)       -153.1388         calculate D2E/DX2 analytically  !
 ! D65   D(13,16,25,28)         71.4535         calculate D2E/DX2 analytically  !
 ! D66   D(17,16,25,26)         88.6942         calculate D2E/DX2 analytically  !
 ! D67   D(17,16,25,28)        -46.7134         calculate D2E/DX2 analytically  !
 ! D68   D(18,16,25,26)        -28.6654         calculate D2E/DX2 analytically  !
 ! D69   D(18,16,25,28)       -164.0731         calculate D2E/DX2 analytically  !
 ! D70   D(5,22,29,30)        -159.2751         calculate D2E/DX2 analytically  !
 ! D71   D(23,22,29,30)         78.7212         calculate D2E/DX2 analytically  !
 ! D72   D(24,22,29,30)        -38.6398         calculate D2E/DX2 analytically  !
 ! D73   D(22,29,30,27)         82.4057         calculate D2E/DX2 analytically  !
 --------------------------------------------------------------------------------
 Trust Radius=3.00D-01 FncErr=1.00D-07 GrdErr=1.00D-06
 Number of steps in this run=    165 maximum allowed number of steps=    180.
 Search for a saddle point of order  1.
 GradGradGradGradGradGradGradGradGradGradGradGradGradGradGradGradGradGrad

 Leave Link  103 at Tue Feb 25 10:24:34 2014, MaxMem= 4026531840 cpu:       0.1
 (Enter /usr/caen/gaussian-09revc/g09/l202.exe)
                          Input orientation:                          
 ---------------------------------------------------------------------
 Center     Atomic      Atomic             Coordinates (Angstroms)
 Number     Number       Type             X           Y           Z
 ---------------------------------------------------------------------
      1          6           0       -3.465532   -0.177902   -0.613137
      2          1           0       -4.004064   -1.125150   -0.709127
      3          1           0       -3.106201    0.105788   -1.606104
      4          1           0       -4.180229    0.581579   -0.283378
      5          6           0       -2.296257   -0.311101    0.373664
      6          1           0       -2.716741   -0.528086    1.365658
      7          6           0       -1.387717   -1.506715   -0.024932
      8          1           0       -1.946668   -2.417917    0.211602
      9          1           0       -1.275211   -1.504749   -1.114089
     10          6           0        0.021690   -1.571488    0.614954
     11          1           0        0.214203   -2.588551    0.970074
     12          1           0        0.046969   -0.949372    1.514599
     13          6           0        1.147948   -1.162852   -0.363550
     14          1           0        0.739802   -0.488459   -1.119260
     15          1           0        1.486411   -2.055422   -0.901552
     16          6           0        2.390942   -0.475636    0.249082
     17          1           0        2.807165   -1.151798    1.015921
     18          6           0        3.463766   -0.264920   -0.828960
     19          1           0        3.095809    0.402181   -1.614844
     20          1           0        4.369731    0.179316   -0.407089
     21          1           0        3.741113   -1.213000   -1.297661
     22          6           0       -1.555530    1.015630    0.566263
     23          1           0       -2.258623    1.841942    0.724537
     24          1           0       -0.893277    0.967159    1.433575
     25          6           0        2.061149    0.823489    0.955599
     26          1           0        2.863557    1.560182    1.004709
     27          1           0        1.106058    1.567434    0.213030
     28          1           0        1.523254    0.741359    1.898813
     29          8           0       -0.752925    1.282957   -0.593305
     30          8           0        0.265950    2.200110   -0.265858
 ---------------------------------------------------------------------
                    Distance matrix (angstroms):
                    1          2          3          4          5
     1  C    0.000000
     2  H    1.093851   0.000000
     3  H    1.093427   1.768031   0.000000
     4  H    1.093775   1.767829   1.769044   0.000000
     5  C    1.535813   2.179843   2.179286   2.185848   0.000000
     6  H    2.144515   2.513646   3.063469   2.468294   1.099064
     7  C    2.535556   2.731114   2.837862   3.496554   1.553646
     8  H    2.829277   2.598435   3.319286   3.772370   2.141763
     9  H    2.609403   2.784731   2.487656   3.671781   2.163502
    10  C    3.951077   4.261350   4.186891   4.806123   2.649467
    11  H    4.675279   4.770224   4.992118   5.561645   3.441641
    12  H    4.178527   4.624578   4.560113   4.842080   2.683250
    13  C    4.724047   5.163727   4.609899   5.607044   3.623743
    14  H    4.247051   4.803941   3.921975   5.103958   3.387910
    15  H    5.303773   5.572051   5.124384   6.280663   4.356307
    16  C    5.927087   6.498933   5.830810   6.676938   4.691740
    17  H    6.553551   7.026332   6.589722   7.315494   5.211927
    18  C    6.933204   7.518167   6.626148   7.710051   5.884412
    19  H    6.662665   7.318556   6.209094   7.399035   5.791141
    20  H    7.846108   8.480171   7.571830   8.560312   6.729449
    21  H    7.312710   7.768002   6.979975   8.185166   6.329027
    22  C    2.542363   3.493548   2.819853   2.792729   1.531661
    23  H    2.706616   3.729020   3.027294   2.509378   2.181770
    24  H    3.480904   4.318093   3.857284   3.728358   2.173870
    25  C    5.831631   6.584475   5.811964   6.367761   4.540146
    26  H    6.759862   7.570499   6.676048   7.227154   5.524817
    27  H    4.962679   5.849250   4.815473   5.400293   3.889787
    28  H    5.660647   6.390340   5.841254   6.108781   4.245282
    29  O    3.081029   4.047505   2.819467   3.512036   2.420315
    30  O    4.438412   5.430181   4.189731   4.731644   3.644184
                    6          7          8          9         10
     6  H    0.000000
     7  C    2.158184   0.000000
     8  H    2.344423   1.094835   0.000000
     9  H    3.030021   1.094954   1.744187   0.000000
    10  C    3.025103   1.549218   2.180268   2.162405   0.000000
    11  H    3.604502   2.174064   2.296467   2.781495   1.094344
    12  H    2.799600   2.176950   2.798038   2.994429   1.094088
    13  C    4.281228   2.581182   3.388604   2.559668   1.546904
    14  H    4.257238   2.600142   3.565266   2.256801   2.167057
    15  H    5.013929   3.054530   3.627195   2.823999   2.163190
    16  C    5.228568   3.926381   4.752759   4.044501   2.635927
    17  H    5.569997   4.336632   4.984869   4.618150   2.845309
    18  C    6.563861   5.072022   5.915316   4.906769   3.954731
    19  H    6.598070   5.125789   6.059326   4.795097   4.279904
    20  H    7.339015   6.011402   6.857499   5.933068   4.797431
    21  H    7.018992   5.292542   6.006709   5.028153   4.197704
    22  C    2.090575   2.596131   3.473905   3.042116   3.030375
    23  H    2.497587   3.540294   4.301955   3.943093   4.106500
    24  H    2.359108   2.914064   3.749879   3.570265   2.819935
    25  C    4.982282   4.276210   5.207959   4.564603   3.164071
    26  H    5.969160   5.342223   6.292262   5.568887   4.246819
    27  H    4.509274   3.965593   5.020175   4.107310   3.345180
    28  H    4.457948   4.150709   4.986789   4.685508   3.041751
    29  O    3.312701   2.916895   3.971066   2.883627   3.194961
    30  O    4.359053   4.066105   5.142939   4.101299   3.880779
                   11         12         13         14         15
    11  H    0.000000
    12  H    1.735334   0.000000
    13  C    2.164036   2.187504   0.000000
    14  H    3.008647   2.762186   1.092010   0.000000
    15  H    2.325021   3.022106   1.095758   1.749341   0.000000
    16  C    3.118081   2.705581   1.546809   2.144478   2.153569
    17  H    2.964762   2.812177   2.157791   3.045161   2.497525
    18  C    4.381261   4.199434   2.527034   2.748495   2.668539
    19  H    4.891823   4.573350   2.794499   2.567024   3.023038
    20  H    5.179390   4.863445   3.490444   3.758922   3.681315
    21  H    4.412919   4.650269   2.756734   3.092678   2.439315
    22  C    4.035485   2.707134   3.594319   3.220531   4.565002
    23  H    5.079806   3.705589   4.670915   4.221482   5.644368
    24  H    3.752921   2.136286   3.454447   3.361954   4.500192
    25  C    3.879876   2.740883   2.553359   2.787868   3.473825
    26  H    4.922628   3.806707   3.497193   3.635727   4.313114
    27  H    4.317491   3.024907   2.790817   2.477062   3.809468
    28  H    3.696549   2.277193   2.980799   3.351867   3.957952
    29  O    4.285798   3.172756   3.106137   2.375453   4.031677
    30  O    4.945855   3.624530   3.478071   2.860286   4.472492
                   16         17         18         19         20
    16  C    0.000000
    17  H    1.103847   0.000000
    18  C    1.535424   2.149712   0.000000
    19  H    2.177526   3.069054   1.094545   0.000000
    20  H    2.185207   2.497686   1.093661   1.769525   0.000000
    21  H    2.181532   2.495730   1.093370   1.768002   1.768282
    22  C    4.230735   4.892141   5.364680   5.173829   6.062636
    23  H    5.216865   5.891485   6.292691   6.017936   6.926758
    24  H    3.777668   4.284587   5.061710   5.052214   5.630985
    25  C    1.515142   2.112330   2.517264   2.802713   2.757069
    26  H    2.222362   2.712589   2.655860   2.873494   2.483651
    27  H    2.413786   3.306452   3.162602   2.942456   3.600414
    28  H    2.226111   2.451932   3.495559   3.864422   3.706145
    29  O    3.699482   4.603464   4.497993   4.078242   5.243501
    30  O    3.455484   4.397274   4.076700   3.613919   4.576524
                   21         22         23         24         25
    21  H    0.000000
    22  C    6.041145   0.000000
    23  H    7.029850   1.096441   0.000000
    24  H    5.804336   1.092318   1.769788   0.000000
    25  C    3.470842   3.642646   4.444217   2.996287   0.000000
    26  H    3.709656   4.474048   5.137569   3.827454   1.090407
    27  H    4.117829   2.741042   3.414392   2.418140   1.420233
    28  H    4.353833   3.365981   4.110085   2.471245   1.088912
    29  O    5.188670   1.435352   2.077570   2.056130   3.244877
    30  O    4.979026   2.326630   2.735441   2.398343   2.570950
                   26         27         28         29         30
    26  H    0.000000
    27  H    1.927592   0.000000
    28  H    1.807292   1.923101   0.000000
    29  O    3.963514   2.046197   3.418329   0.000000
    30  O    2.961657   1.155593   2.897338   1.409432   0.000000
 Stoichiometry    C9H19O2(2)
 Framework group  C1[X(C9H19O2)]
 Deg. of freedom    84
 Full point group                 C1      NOp   1
 Largest Abelian subgroup         C1      NOp   1
 Largest concise Abelian subgroup C1      NOp   1
                         Standard orientation:                         
 ---------------------------------------------------------------------
 Center     Atomic      Atomic             Coordinates (Angstroms)
 Number     Number       Type             X           Y           Z
 ---------------------------------------------------------------------
      1          6           0       -3.465532   -0.177902   -0.613137
      2          1           0       -4.004064   -1.125150   -0.709127
      3          1           0       -3.106201    0.105788   -1.606104
      4          1           0       -4.180229    0.581579   -0.283378
      5          6           0       -2.296257   -0.311101    0.373664
      6          1           0       -2.716741   -0.528086    1.365658
      7          6           0       -1.387717   -1.506715   -0.024932
      8          1           0       -1.946668   -2.417917    0.211602
      9          1           0       -1.275211   -1.504749   -1.114089
     10          6           0        0.021690   -1.571488    0.614954
     11          1           0        0.214203   -2.588551    0.970074
     12          1           0        0.046969   -0.949372    1.514599
     13          6           0        1.147948   -1.162852   -0.363550
     14          1           0        0.739802   -0.488459   -1.119260
     15          1           0        1.486411   -2.055422   -0.901552
     16          6           0        2.390942   -0.475636    0.249082
     17          1           0        2.807165   -1.151798    1.015921
     18          6           0        3.463766   -0.264920   -0.828960
     19          1           0        3.095809    0.402181   -1.614844
     20          1           0        4.369731    0.179316   -0.407089
     21          1           0        3.741113   -1.213000   -1.297661
     22          6           0       -1.555530    1.015630    0.566263
     23          1           0       -2.258623    1.841942    0.724537
     24          1           0       -0.893277    0.967159    1.433575
     25          6           0        2.061149    0.823489    0.955599
     26          1           0        2.863557    1.560182    1.004709
     27          1           0        1.106058    1.567434    0.213030
     28          1           0        1.523254    0.741359    1.898813
     29          8           0       -0.752925    1.282957   -0.593305
     30          8           0        0.265950    2.200110   -0.265858
 ---------------------------------------------------------------------
 Rotational constants (GHZ):      1.6584486      0.6789945      0.5526103
 Leave Link  202 at Tue Feb 25 10:24:34 2014, MaxMem= 4026531840 cpu:       0.2
 (Enter /usr/caen/gaussian-09revc/g09/l301.exe)
 Standard basis: 6-311G(2d,d,p) (5D, 7F)
 Ernie: Thresh=  0.10000D-02 Tol=  0.10000D-05 Strict=F.
 There are   312 symmetry adapted basis functions of A   symmetry.
 Integral buffers will be    131072 words long.
 Raffenetti 2 integral format.
 Two-electron integral symmetry is turned on.
   312 basis functions,   504 primitive gaussians,   323 cartesian basis functions
    45 alpha electrons       44 beta electrons
       nuclear repulsion energy       692.0156037392 Hartrees.
 IExCor=  402 DFT=T Ex+Corr=B3LYP ExCW=0 ScaHFX=  0.200000
 ScaDFX=  0.800000  0.720000  1.000000  0.810000 ScalE2=  1.000000  1.000000
 IRadAn=      0 IRanWt=     -1 IRanGd=            0 ICorTp=0
 NAtoms=   30 NActive=   30 NUniq=   30 SFac= 1.00D+00 NAtFMM=   60 NAOKFM=F Big=F
 Leave Link  301 at Tue Feb 25 10:24:34 2014, MaxMem= 4026531840 cpu:       0.7
 (Enter /usr/caen/gaussian-09revc/g09/l302.exe)
 NPDir=0 NMtPBC=     1 NCelOv=     1 NCel=       1 NClECP=     1 NCelD=      1
         NCelK=      1 NCelE2=     1 NClLst=     1 CellRange=     0.0.
 One-electron integrals computed using PRISM.
 NBasis=   312 RedAO= T  NBF=   312
 NBsUse=   312 1.00D-06 NBFU=   312
 Precomputing XC quadrature grid using
 IXCGrd= 2 IRadAn=           0 IRanWt=          -1 IRanGd=           0 AccXCQ= 0.00D+00.
 NRdTot=    1908 NPtTot=      242676 NUsed=      256435 NTot=      256467
 NSgBfM=   323   323   323   323   323 NAtAll=    30    30.
 Leave Link  302 at Tue Feb 25 10:24:37 2014, MaxMem= 4026531840 cpu:      13.2
 (Enter /usr/caen/gaussian-09revc/g09/l303.exe)
 DipDrv:  MaxL=1.
 Leave Link  303 at Tue Feb 25 10:24:37 2014, MaxMem= 4026531840 cpu:       1.9
 (Enter /usr/caen/gaussian-09revc/g09/l401.exe)
 Harris functional with IExCor=  402 diagonalized for initial guess.
 ExpMin= 1.03D-01 ExpMax= 8.59D+03 ExpMxC= 1.30D+03 IAcc=1 IRadAn=         1 AccDes= 0.00D+00
 HarFok:  IExCor=  402 AccDes= 0.00D+00 IRadAn=         1 IDoV= 1
 ScaDFX=  1.000000  1.000000  1.000000  1.000000
 FoFCou: FMM=F IPFlag=           0 FMFlag=      100000 FMFlg1=           0
         NFxFlg=           0 DoJE=T BraDBF=F KetDBF=T FulRan=T
         Omega=  0.000000  0.000000  1.000000  0.000000  0.000000 ICntrl=     500 IOpCl=  0
         NMat0=    1 NMatS0=    1 NMatT0=    0 NMatD0=    1 NMtDS0=    0 NMtDT0=    0
         I1Cent=           4 NGrid=           0.
 Petite list used in FoFCou.
 Harris En= -504.873906385042    
 Initial guess orbital symmetries:
 Alpha Orbitals:
       Occupied  (A) (A) (A) (A) (A) (A) (A) (A) (A) (A) (A) (A)
                 (A) (A) (A) (A) (A) (A) (A) (A) (A) (A) (A) (A)
                 (A) (A) (A) (A) (A) (A) (A) (A) (A) (A) (A) (A)
                 (A) (A) (A) (A) (A) (A) (A) (A) (A)
       Virtual   (A) (A) (A) (A) (A) (A) (A) (A) (A) (A) (A) (A)
                 (A) (A) (A) (A) (A) (A) (A) (A) (A) (A) (A) (A)
                 (A) (A) (A) (A) (A) (A) (A) (A) (A) (A) (A) (A)
                 (A) (A) (A) (A) (A) (A) (A) (A) (A) (A) (A) (A)
                 (A) (A) (A) (A) (A) (A) (A) (A) (A) (A) (A) (A)
                 (A) (A) (A) (A) (A) (A) (A) (A) (A) (A) (A) (A)
                 (A) (A) (A) (A) (A) (A) (A) (A) (A) (A) (A) (A)
                 (A) (A) (A) (A) (A) (A) (A) (A) (A) (A) (A) (A)
                 (A) (A) (A) (A) (A) (A) (A) (A) (A) (A) (A) (A)
                 (A) (A) (A) (A) (A) (A) (A) (A) (A) (A) (A) (A)
                 (A) (A) (A) (A) (A) (A) (A) (A) (A) (A) (A) (A)
                 (A) (A) (A) (A) (A) (A) (A) (A) (A) (A) (A) (A)
                 (A) (A) (A) (A) (A) (A) (A) (A) (A) (A) (A) (A)
                 (A) (A) (A) (A) (A) (A) (A) (A) (A) (A) (A) (A)
                 (A) (A) (A) (A) (A) (A) (A) (A) (A) (A) (A) (A)
                 (A) (A) (A) (A) (A) (A) (A) (A) (A) (A) (A) (A)
                 (A) (A) (A) (A) (A) (A) (A) (A) (A) (A) (A) (A)
                 (A) (A) (A) (A) (A) (A) (A) (A) (A) (A) (A) (A)
                 (A) (A) (A) (A) (A) (A) (A) (A) (A) (A) (A) (A)
                 (A) (A) (A) (A) (A) (A) (A) (A) (A) (A) (A) (A)
                 (A) (A) (A) (A) (A) (A) (A) (A) (A) (A) (A) (A)
                 (A) (A) (A) (A) (A) (A) (A) (A) (A) (A) (A) (A)
                 (A) (A) (A)
 Beta  Orbitals:
       Occupied  (A) (A) (A) (A) (A) (A) (A) (A) (A) (A) (A) (A)
                 (A) (A) (A) (A) (A) (A) (A) (A) (A) (A) (A) (A)
                 (A) (A) (A) (A) (A) (A) (A) (A) (A) (A) (A) (A)
                 (A) (A) (A) (A) (A) (A) (A) (A)
       Virtual   (A) (A) (A) (A) (A) (A) (A) (A) (A) (A) (A) (A)
                 (A) (A) (A) (A) (A) (A) (A) (A) (A) (A) (A) (A)
                 (A) (A) (A) (A) (A) (A) (A) (A) (A) (A) (A) (A)
                 (A) (A) (A) (A) (A) (A) (A) (A) (A) (A) (A) (A)
                 (A) (A) (A) (A) (A) (A) (A) (A) (A) (A) (A) (A)
                 (A) (A) (A) (A) (A) (A) (A) (A) (A) (A) (A) (A)
                 (A) (A) (A) (A) (A) (A) (A) (A) (A) (A) (A) (A)
                 (A) (A) (A) (A) (A) (A) (A) (A) (A) (A) (A) (A)
                 (A) (A) (A) (A) (A) (A) (A) (A) (A) (A) (A) (A)
                 (A) (A) (A) (A) (A) (A) (A) (A) (A) (A) (A) (A)
                 (A) (A) (A) (A) (A) (A) (A) (A) (A) (A) (A) (A)
                 (A) (A) (A) (A) (A) (A) (A) (A) (A) (A) (A) (A)
                 (A) (A) (A) (A) (A) (A) (A) (A) (A) (A) (A) (A)
                 (A) (A) (A) (A) (A) (A) (A) (A) (A) (A) (A) (A)
                 (A) (A) (A) (A) (A) (A) (A) (A) (A) (A) (A) (A)
                 (A) (A) (A) (A) (A) (A) (A) (A) (A) (A) (A) (A)
                 (A) (A) (A) (A) (A) (A) (A) (A) (A) (A) (A) (A)
                 (A) (A) (A) (A) (A) (A) (A) (A) (A) (A) (A) (A)
                 (A) (A) (A) (A) (A) (A) (A) (A) (A) (A) (A) (A)
                 (A) (A) (A) (A) (A) (A) (A) (A) (A) (A) (A) (A)
                 (A) (A) (A) (A) (A) (A) (A) (A) (A) (A) (A) (A)
                 (A) (A) (A) (A) (A) (A) (A) (A) (A) (A) (A) (A)
                 (A) (A) (A) (A)
 The electronic state of the initial guess is 2-A.
 Initial guess <Sx>= 0.0000 <Sy>= 0.0000 <Sz>= 0.5000 <S**2>= 0.7500 S= 0.5000
 Leave Link  401 at Tue Feb 25 10:24:39 2014, MaxMem= 4026531840 cpu:      13.0
 (Enter /usr/caen/gaussian-09revc/g09/l502.exe)
 UHF open shell SCF:
 Requested convergence on RMS density matrix=1.00D-08 within 128 cycles.
 Requested convergence on MAX density matrix=1.00D-06.
 Requested convergence on             energy=1.00D-06.
 No special actions if energy rises.
 Using DIIS extrapolation, IDIIS=  1040.
 Integral symmetry usage will be decided dynamically.
       256152 words used for storage of precomputed grid.
 Keep R1 and R2 ints in memory in canonical form, NReq=2755660883.
 IEnd=      592310 IEndB=      592310 NGot=  4026531840 MDV=  1287998193
 LenX=  1287998193 LenY=  1287893423
 Symmetry not used in FoFDir.
 MinBra= 0 MaxBra= 2 Meth= 1.
 IRaf=       0 NMat=   1 IRICut=       1 DoRegI=T DoRafI=F ISym2E= 0 JSym2E=0.
 Integral accuracy reduced to 1.0D-05 until final iterations.

 Cycle   1  Pass 0  IDiag  1:
 E= -504.448278639768    
 DIIS: error= 3.03D-02 at cycle   1 NSaved=   1.
 NSaved= 1 IEnMin= 1 EnMin= -504.448278639768     IErMin= 1 ErrMin= 3.03D-02
 ErrMax= 3.03D-02 EMaxC= 1.00D-01 BMatC= 1.46D+00 BMatP= 1.46D+00
 IDIUse=3 WtCom= 6.97D-01 WtEn= 3.03D-01
 Coeff-Com:  0.100D+01
 Coeff-En:   0.100D+01
 Coeff:      0.100D+01
 Gap=     0.194 Goal=   None    Shift=    0.000
 Gap=     0.191 Goal=   None    Shift=    0.000
 GapD=    0.191 DampG=1.000 DampE=0.500 DampFc=0.5000 IDamp=-1.
 Damping current iteration by 5.00D-01
 RMSDP=3.42D-03 MaxDP=1.20D-01              OVMax= 2.56D-01

 Cycle   2  Pass 0  IDiag  1:
 E= -504.594913767658     Delta-E=       -0.146635127890 Rises=F Damp=T
 DIIS: error= 7.52D-03 at cycle   2 NSaved=   2.
 NSaved= 2 IEnMin= 2 EnMin= -504.594913767658     IErMin= 2 ErrMin= 7.52D-03
 ErrMax= 7.52D-03 EMaxC= 1.00D-01 BMatC= 1.26D-01 BMatP= 1.46D+00
 IDIUse=3 WtCom= 9.25D-01 WtEn= 7.52D-02
 Coeff-Com:  0.103D+00 0.897D+00
 Coeff-En:   0.201D+00 0.799D+00
 Coeff:      0.110D+00 0.890D+00
 Gap=     0.292 Goal=   None    Shift=    0.000
 Gap=     0.202 Goal=   None    Shift=    0.000
 RMSDP=9.86D-04 MaxDP=3.10D-02 DE=-1.47D-01 OVMax= 2.56D-01

 Cycle   3  Pass 0  IDiag  1:
 E= -504.797725658278     Delta-E=       -0.202811890620 Rises=F Damp=F
 DIIS: error= 9.57D-03 at cycle   3 NSaved=   3.
 NSaved= 3 IEnMin= 3 EnMin= -504.797725658278     IErMin= 2 ErrMin= 7.52D-03
 ErrMax= 9.57D-03 EMaxC= 1.00D-01 BMatC= 9.17D-02 BMatP= 1.26D-01
 IDIUse=3 WtCom= 9.04D-01 WtEn= 9.57D-02
 Coeff-Com:  0.131D-02 0.453D+00 0.546D+00
 Coeff-En:   0.000D+00 0.000D+00 0.100D+01
 Coeff:      0.118D-02 0.409D+00 0.589D+00
 Gap=     0.266 Goal=   None    Shift=    0.000
 Gap=     0.150 Goal=   None    Shift=    0.000
 RMSDP=6.25D-04 MaxDP=2.74D-02 DE=-2.03D-01 OVMax= 1.62D-01

 Cycle   4  Pass 0  IDiag  1:
 E= -504.809393797848     Delta-E=       -0.011668139570 Rises=F Damp=F
 DIIS: error= 4.80D-03 at cycle   4 NSaved=   4.
 NSaved= 4 IEnMin= 4 EnMin= -504.809393797848     IErMin= 4 ErrMin= 4.80D-03
 ErrMax= 4.80D-03 EMaxC= 1.00D-01 BMatC= 4.14D-02 BMatP= 9.17D-02
 IDIUse=3 WtCom= 9.52D-01 WtEn= 4.80D-02
 Coeff-Com: -0.120D-01 0.115D+00 0.412D+00 0.486D+00
 Coeff-En:   0.000D+00 0.000D+00 0.326D+00 0.674D+00
 Coeff:     -0.115D-01 0.109D+00 0.408D+00 0.495D+00
 Gap=     0.260 Goal=   None    Shift=    0.000
 Gap=     0.142 Goal=   None    Shift=    0.000
 RMSDP=2.66D-04 MaxDP=1.10D-02 DE=-1.17D-02 OVMax= 4.30D-02

 Cycle   5  Pass 0  IDiag  1:
 E= -504.817735420192     Delta-E=       -0.008341622345 Rises=F Damp=F
 DIIS: error= 9.56D-04 at cycle   5 NSaved=   5.
 NSaved= 5 IEnMin= 5 EnMin= -504.817735420192     IErMin= 5 ErrMin= 9.56D-04
 ErrMax= 9.56D-04 EMaxC= 1.00D-01 BMatC= 1.34D-03 BMatP= 4.14D-02
 IDIUse=3 WtCom= 9.90D-01 WtEn= 9.56D-03
 Coeff-Com: -0.452D-02 0.149D-01 0.160D+00 0.223D+00 0.607D+00
 Coeff-En:   0.000D+00 0.000D+00 0.000D+00 0.000D+00 0.100D+01
 Coeff:     -0.448D-02 0.148D-01 0.158D+00 0.221D+00 0.610D+00
 Gap=     0.254 Goal=   None    Shift=    0.000
 Gap=     0.147 Goal=   None    Shift=    0.000
 RMSDP=7.10D-05 MaxDP=2.37D-03 DE=-8.34D-03 OVMax= 1.10D-02

 Cycle   6  Pass 0  IDiag  1:
 E= -504.817983688894     Delta-E=       -0.000248268702 Rises=F Damp=F
 DIIS: error= 1.04D-03 at cycle   6 NSaved=   6.
 NSaved= 6 IEnMin= 6 EnMin= -504.817983688894     IErMin= 5 ErrMin= 9.56D-04
 ErrMax= 1.04D-03 EMaxC= 1.00D-01 BMatC= 6.58D-04 BMatP= 1.34D-03
 IDIUse=3 WtCom= 9.90D-01 WtEn= 9.56D-03
 Coeff-Com:  0.102D-03-0.125D-01 0.343D-01 0.465D-01 0.411D+00 0.520D+00
 Coeff-En:   0.000D+00 0.000D+00 0.000D+00 0.000D+00 0.172D+00 0.828D+00
 Coeff:      0.101D-03-0.124D-01 0.340D-01 0.460D-01 0.409D+00 0.523D+00
 Gap=     0.255 Goal=   None    Shift=    0.000
 Gap=     0.147 Goal=   None    Shift=    0.000
 RMSDP=3.42D-05 MaxDP=1.56D-03 DE=-2.48D-04 OVMax= 6.65D-03

 Cycle   7  Pass 0  IDiag  1:
 E= -504.818104357277     Delta-E=       -0.000120668383 Rises=F Damp=F
 DIIS: error= 2.68D-04 at cycle   7 NSaved=   7.
 NSaved= 7 IEnMin= 7 EnMin= -504.818104357277     IErMin= 7 ErrMin= 2.68D-04
 ErrMax= 2.68D-04 EMaxC= 1.00D-01 BMatC= 9.33D-05 BMatP= 6.58D-04
 IDIUse=3 WtCom= 9.97D-01 WtEn= 2.68D-03
 Coeff-Com:  0.181D-02-0.994D-02-0.215D-01-0.459D-01 0.542D-01 0.289D+00
 Coeff-Com:  0.732D+00
 Coeff-En:   0.000D+00 0.000D+00 0.000D+00 0.000D+00 0.000D+00 0.000D+00
 Coeff-En:   0.100D+01
 Coeff:      0.181D-02-0.991D-02-0.214D-01-0.458D-01 0.540D-01 0.288D+00
 Coeff:      0.733D+00
 Gap=     0.256 Goal=   None    Shift=    0.000
 Gap=     0.148 Goal=   None    Shift=    0.000
 RMSDP=2.06D-05 MaxDP=1.23D-03 DE=-1.21D-04 OVMax= 3.41D-03

 Cycle   8  Pass 0  IDiag  1:
 E= -504.818132682608     Delta-E=       -0.000028325331 Rises=F Damp=F
 DIIS: error= 1.03D-04 at cycle   8 NSaved=   8.
 NSaved= 8 IEnMin= 8 EnMin= -504.818132682608     IErMin= 8 ErrMin= 1.03D-04
 ErrMax= 1.03D-04 EMaxC= 1.00D-01 BMatC= 1.32D-05 BMatP= 9.33D-05
 IDIUse=3 WtCom= 9.99D-01 WtEn= 1.03D-03
 Coeff-Com:  0.861D-03-0.129D-02-0.151D-01-0.325D-01-0.661D-01 0.186D-01
 Coeff-Com:  0.347D+00 0.748D+00
 Coeff-En:   0.000D+00 0.000D+00 0.000D+00 0.000D+00 0.000D+00 0.000D+00
 Coeff-En:   0.000D+00 0.100D+01
 Coeff:      0.860D-03-0.128D-02-0.151D-01-0.324D-01-0.661D-01 0.186D-01
 Coeff:      0.347D+00 0.749D+00
 Gap=     0.256 Goal=   None    Shift=    0.000
 Gap=     0.148 Goal=   None    Shift=    0.000
 RMSDP=8.60D-06 MaxDP=3.55D-04 DE=-2.83D-05 OVMax= 2.57D-03

 Initial convergence to 1.0D-05 achieved.  Increase integral accuracy.
 Cycle   9  Pass 1  IDiag  1:
 E= -504.818216621576     Delta-E=       -0.000083938967 Rises=F Damp=F
 DIIS: error= 2.34D-05 at cycle   1 NSaved=   1.
 NSaved= 1 IEnMin= 1 EnMin= -504.818216621576     IErMin= 1 ErrMin= 2.34D-05
 ErrMax= 2.34D-05 EMaxC= 1.00D-01 BMatC= 2.59D-06 BMatP= 2.59D-06
 IDIUse=1 WtCom= 1.00D+00 WtEn= 0.00D+00
 Coeff-Com:  0.100D+01
 Coeff:      0.100D+01
 Gap=     0.256 Goal=   None    Shift=    0.000
 Gap=     0.148 Goal=   None    Shift=    0.000
 RMSDP=8.60D-06 MaxDP=3.55D-04 DE=-8.39D-05 OVMax= 4.52D-04

 Cycle  10  Pass 1  IDiag  1:
 E= -504.818217089978     Delta-E=       -0.000000468402 Rises=F Damp=F
 DIIS: error= 2.87D-05 at cycle   2 NSaved=   2.
 NSaved= 2 IEnMin= 2 EnMin= -504.818217089978     IErMin= 1 ErrMin= 2.34D-05
 ErrMax= 2.87D-05 EMaxC= 1.00D-01 BMatC= 1.86D-06 BMatP= 2.59D-06
 IDIUse=1 WtCom= 1.00D+00 WtEn= 0.00D+00
 Coeff-Com:  0.448D+00 0.552D+00
 Coeff:      0.448D+00 0.552D+00
 Gap=     0.256 Goal=   None    Shift=    0.000
 Gap=     0.148 Goal=   None    Shift=    0.000
 RMSDP=2.15D-06 MaxDP=9.27D-05 DE=-4.68D-07 OVMax= 3.31D-04

 Cycle  11  Pass 1  IDiag  1:
 E= -504.818217509156     Delta-E=       -0.000000419178 Rises=F Damp=F
 DIIS: error= 1.40D-05 at cycle   3 NSaved=   3.
 NSaved= 3 IEnMin= 3 EnMin= -504.818217509156     IErMin= 3 ErrMin= 1.40D-05
 ErrMax= 1.40D-05 EMaxC= 1.00D-01 BMatC= 2.87D-07 BMatP= 1.86D-06
 IDIUse=1 WtCom= 1.00D+00 WtEn= 0.00D+00
 Coeff-Com:  0.176D-01 0.261D+00 0.721D+00
 Coeff:      0.176D-01 0.261D+00 0.721D+00
 Gap=     0.256 Goal=   None    Shift=    0.000
 Gap=     0.148 Goal=   None    Shift=    0.000
 RMSDP=1.03D-06 MaxDP=5.32D-05 DE=-4.19D-07 OVMax= 1.85D-04

 Cycle  12  Pass 1  IDiag  1:
 E= -504.818217574352     Delta-E=       -0.000000065197 Rises=F Damp=F
 DIIS: error= 1.31D-05 at cycle   4 NSaved=   4.
 NSaved= 4 IEnMin= 4 EnMin= -504.818217574352     IErMin= 4 ErrMin= 1.31D-05
 ErrMax= 1.31D-05 EMaxC= 1.00D-01 BMatC= 1.08D-07 BMatP= 2.87D-07
 IDIUse=1 WtCom= 1.00D+00 WtEn= 0.00D+00
 Coeff-Com: -0.509D-01 0.939D-01 0.465D+00 0.492D+00
 Coeff:     -0.509D-01 0.939D-01 0.465D+00 0.492D+00
 Gap=     0.256 Goal=   None    Shift=    0.000
 Gap=     0.148 Goal=   None    Shift=    0.000
 RMSDP=5.08D-07 MaxDP=2.11D-05 DE=-6.52D-08 OVMax= 1.19D-04

 Cycle  13  Pass 1  IDiag  1:
 E= -504.818217601913     Delta-E=       -0.000000027561 Rises=F Damp=F
 DIIS: error= 4.96D-06 at cycle   5 NSaved=   5.
 NSaved= 5 IEnMin= 5 EnMin= -504.818217601913     IErMin= 5 ErrMin= 4.96D-06
 ErrMax= 4.96D-06 EMaxC= 1.00D-01 BMatC= 1.40D-08 BMatP= 1.08D-07
 IDIUse=1 WtCom= 1.00D+00 WtEn= 0.00D+00
 Coeff-Com: -0.276D-01-0.185D-01 0.289D-01 0.241D+00 0.776D+00
 Coeff:     -0.276D-01-0.185D-01 0.289D-01 0.241D+00 0.776D+00
 Gap=     0.256 Goal=   None    Shift=    0.000
 Gap=     0.148 Goal=   None    Shift=    0.000
 RMSDP=3.26D-07 MaxDP=1.48D-05 DE=-2.76D-08 OVMax= 9.52D-05

 Cycle  14  Pass 1  IDiag  1:
 E= -504.818217608262     Delta-E=       -0.000000006349 Rises=F Damp=F
 DIIS: error= 2.72D-06 at cycle   6 NSaved=   6.
 NSaved= 6 IEnMin= 6 EnMin= -504.818217608262     IErMin= 6 ErrMin= 2.72D-06
 ErrMax= 2.72D-06 EMaxC= 1.00D-01 BMatC= 4.74D-09 BMatP= 1.40D-08
 IDIUse=1 WtCom= 1.00D+00 WtEn= 0.00D+00
 Coeff-Com:  0.936D-03-0.476D-01-0.163D+00-0.343D-01 0.460D+00 0.784D+00
 Coeff:      0.936D-03-0.476D-01-0.163D+00-0.343D-01 0.460D+00 0.784D+00
 Gap=     0.256 Goal=   None    Shift=    0.000
 Gap=     0.148 Goal=   None    Shift=    0.000
 RMSDP=2.43D-07 MaxDP=9.46D-06 DE=-6.35D-09 OVMax= 6.18D-05

 Cycle  15  Pass 1  IDiag  1:
 E= -504.818217610343     Delta-E=       -0.000000002080 Rises=F Damp=F
 DIIS: error= 1.17D-06 at cycle   7 NSaved=   7.
 NSaved= 7 IEnMin= 7 EnMin= -504.818217610343     IErMin= 7 ErrMin= 1.17D-06
 ErrMax= 1.17D-06 EMaxC= 1.00D-01 BMatC= 2.01D-09 BMatP= 4.74D-09
 IDIUse=1 WtCom= 1.00D+00 WtEn= 0.00D+00
 Coeff-Com:  0.558D-02-0.300D-01-0.119D+00-0.600D-01 0.204D+00 0.544D+00
 Coeff-Com:  0.456D+00
 Coeff:      0.558D-02-0.300D-01-0.119D+00-0.600D-01 0.204D+00 0.544D+00
 Coeff:      0.456D+00
 Gap=     0.256 Goal=   None    Shift=    0.000
 Gap=     0.148 Goal=   None    Shift=    0.000
 RMSDP=7.39D-08 MaxDP=3.34D-06 DE=-2.08D-09 OVMax= 2.40D-05

 Cycle  16  Pass 1  IDiag  1:
 E= -504.818217610821     Delta-E=       -0.000000000478 Rises=F Damp=F
 DIIS: error= 1.90D-07 at cycle   8 NSaved=   8.
 NSaved= 8 IEnMin= 8 EnMin= -504.818217610821     IErMin= 8 ErrMin= 1.90D-07
 ErrMax= 1.90D-07 EMaxC= 1.00D-01 BMatC= 4.44D-11 BMatP= 2.01D-09
 IDIUse=1 WtCom= 1.00D+00 WtEn= 0.00D+00
 Coeff-Com:  0.165D-02-0.553D-02-0.229D-01-0.179D-01 0.206D-01 0.972D-01
 Coeff-Com:  0.145D+00 0.782D+00
 Coeff:      0.165D-02-0.553D-02-0.229D-01-0.179D-01 0.206D-01 0.972D-01
 Coeff:      0.145D+00 0.782D+00
 Gap=     0.256 Goal=   None    Shift=    0.000
 Gap=     0.148 Goal=   None    Shift=    0.000
 RMSDP=1.92D-08 MaxDP=8.09D-07 DE=-4.78D-10 OVMax= 5.75D-06

 Cycle  17  Pass 1  IDiag  1:
 E= -504.818217610844     Delta-E=       -0.000000000023 Rises=F Damp=F
 DIIS: error= 8.72D-08 at cycle   9 NSaved=   9.
 NSaved= 9 IEnMin= 9 EnMin= -504.818217610844     IErMin= 9 ErrMin= 8.72D-08
 ErrMax= 8.72D-08 EMaxC= 1.00D-01 BMatC= 1.29D-11 BMatP= 4.44D-11
 IDIUse=1 WtCom= 1.00D+00 WtEn= 0.00D+00
 Coeff-Com: -0.293D-03 0.285D-02 0.116D-01 0.268D-02-0.264D-01-0.556D-01
 Coeff-Com: -0.279D-01 0.355D+00 0.738D+00
 Coeff:     -0.293D-03 0.285D-02 0.116D-01 0.268D-02-0.264D-01-0.556D-01
 Coeff:     -0.279D-01 0.355D+00 0.738D+00
 Gap=     0.256 Goal=   None    Shift=    0.000
 Gap=     0.148 Goal=   None    Shift=    0.000
 RMSDP=8.61D-09 MaxDP=3.32D-07 DE=-2.30D-11 OVMax= 2.47D-06

 SCF Done:  E(UB3LYP) =  -504.818217611     A.U. after   17 cycles
             Convg  =    0.8606D-08             -V/T =  2.0043
 <Sx>= 0.0000 <Sy>= 0.0000 <Sz>= 0.5000 <S**2>= 0.7569 S= 0.5034
 <L.S>= 0.000000000000E+00
 KE= 5.026678834598D+02 PE=-2.560257790067D+03 EE= 8.607560852571D+02
 Annihilation of the first spin contaminant:
 S**2 before annihilation     0.7569,   after     0.7500
 Leave Link  502 at Tue Feb 25 10:27:24 2014, MaxMem= 4026531840 cpu:    1306.7
 (Enter /usr/caen/gaussian-09revc/g09/l801.exe)
 Range of M.O.s used for correlation:     1   312
 NBasis=   312 NAE=    45 NBE=    44 NFC=     0 NFV=     0
 NROrb=    312 NOA=    45 NOB=    44 NVA=   267 NVB=   268
 Leave Link  801 at Tue Feb 25 10:27:24 2014, MaxMem= 4026531840 cpu:       0.2
 (Enter /usr/caen/gaussian-09revc/g09/l1101.exe)
 Using compressed storage, NAtomX=    30.
 Will process  31 centers per pass.
 Leave Link 1101 at Tue Feb 25 10:27:26 2014, MaxMem= 4026531840 cpu:      10.9
 (Enter /usr/caen/gaussian-09revc/g09/l1102.exe)
 Symmetrizing basis deriv contribution to polar:
 IMax=3 JMax=2 DiffMx= 0.00D+00
 Leave Link 1102 at Tue Feb 25 10:27:27 2014, MaxMem= 4026531840 cpu:       1.6
 (Enter /usr/caen/gaussian-09revc/g09/l1110.exe)
 Forming Gx(P) for the SCF density, NAtomX=    30.
 Integral derivatives from FoFDir/FoFCou, PRISM(SPDF).
 Do as many integral derivatives as possible in FoFDir.
 G2DrvN: MDV=    4026531496.
 G2DrvN: will do    31 centers at a time, making    1 passes doing MaxLOS=2.
 Calling FoFCou, ICntrl=  3107 FMM=F I1Cent=   0 AccDes= 0.00D+00.
 FoFCou: FMM=F IPFlag=           0 FMFlag=      100000 FMFlg1=           0
         NFxFlg=           0 DoJE=F BraDBF=F KetDBF=F FulRan=T
         Omega=  0.000000  0.000000  1.000000  0.000000  0.000000 ICntrl=    3107 IOpCl=  1
         NMat0=    1 NMatS0=    1 NMatT0=    0 NMatD0=    1 NMtDS0=    0 NMtDT0=    0
         I1Cent=           0 NGrid=           0.
 Symmetry not used in FoFCou.
 FoFDir/FoFCou used for L=0 through L=2.
 End of G2Drv Frequency-dependent properties file   721 does not exist.
 End of G2Drv Frequency-dependent properties file   722 does not exist.
 Leave Link 1110 at Tue Feb 25 10:31:09 2014, MaxMem= 4026531840 cpu:    1770.6
 (Enter /usr/caen/gaussian-09revc/g09/l1002.exe)
 Minotr:  UHF open shell wavefunction.
          IDoAtm=111111111111111111111111111111
          Direct CPHF calculation.
          Differentiating once with respect to nuclear coordinates.
          Requested convergence is 1.0D-06 RMS, and 1.0D-05 maximum.
          Secondary convergence is 1.0D-12 RMS, and 1.0D-12 maximum.
          NewPWx=T KeepS1=F KeepF1=F KeepIn=T MapXYZ=F SortEE=F KeepMc=T.
          MDV=    4026531536 using IRadAn=       2.
 Generate precomputed XC quadrature information.
          Keep R1 and R2 ints in memory in canonical form, NReq=2738891871.
 Symmetry not used in FoFDir.
 MinBra= 0 MaxBra= 2 Meth= 1.
 IRaf=       0 NMat=   1 IRICut=       1 DoRegI=T DoRafI=F ISym2E= 0 JSym2E=0.
          Solving linear equations simultaneously, MaxMat=       0.
          There are    93 degrees of freedom in the 1st order CPHF.  IDoFFX=5.
     87 vectors produced by pass  0 Test12= 2.56D-10 1.08D-07 XBig12= 2.33D-01 2.38D-01.
 AX will form    87 AO Fock derivatives at one time.
     87 vectors produced by pass  1 Test12= 2.56D-10 1.08D-07 XBig12= 1.38D-02 1.03D-02.
     87 vectors produced by pass  2 Test12= 2.56D-10 1.08D-07 XBig12= 5.92D-05 9.37D-04.
     87 vectors produced by pass  3 Test12= 2.56D-10 1.08D-07 XBig12= 2.54D-07 4.61D-05.
     74 vectors produced by pass  4 Test12= 2.56D-10 1.08D-07 XBig12= 7.10D-10 2.25D-06.
      5 vectors produced by pass  5 Test12= 2.56D-10 1.08D-07 XBig12= 3.32D-12 1.43D-07.
 Inverted reduced A of dimension   427 with in-core refinement.
 End of Minotr Frequency-dependent properties file   721 does not exist.
 End of Minotr Frequency-dependent properties file   722 does not exist.
 Leave Link 1002 at Tue Feb 25 10:36:00 2014, MaxMem= 4026531840 cpu:    2322.7
 (Enter /usr/caen/gaussian-09revc/g09/l601.exe)
 Copying SCF densities to generalized density rwf, IOpCl= 1 IROHF=0.

 **********************************************************************

            Population analysis using the SCF density.

 **********************************************************************

 Orbital symmetries:
 Alpha Orbitals:
       Occupied  (A) (A) (A) (A) (A) (A) (A) (A) (A) (A) (A) (A)
                 (A) (A) (A) (A) (A) (A) (A) (A) (A) (A) (A) (A)
                 (A) (A) (A) (A) (A) (A) (A) (A) (A) (A) (A) (A)
                 (A) (A) (A) (A) (A) (A) (A) (A) (A)
       Virtual   (A) (A) (A) (A) (A) (A) (A) (A) (A) (A) (A) (A)
                 (A) (A) (A) (A) (A) (A) (A) (A) (A) (A) (A) (A)
                 (A) (A) (A) (A) (A) (A) (A) (A) (A) (A) (A) (A)
                 (A) (A) (A) (A) (A) (A) (A) (A) (A) (A) (A) (A)
                 (A) (A) (A) (A) (A) (A) (A) (A) (A) (A) (A) (A)
                 (A) (A) (A) (A) (A) (A) (A) (A) (A) (A) (A) (A)
                 (A) (A) (A) (A) (A) (A) (A) (A) (A) (A) (A) (A)
                 (A) (A) (A) (A) (A) (A) (A) (A) (A) (A) (A) (A)
                 (A) (A) (A) (A) (A) (A) (A) (A) (A) (A) (A) (A)
                 (A) (A) (A) (A) (A) (A) (A) (A) (A) (A) (A) (A)
                 (A) (A) (A) (A) (A) (A) (A) (A) (A) (A) (A) (A)
                 (A) (A) (A) (A) (A) (A) (A) (A) (A) (A) (A) (A)
                 (A) (A) (A) (A) (A) (A) (A) (A) (A) (A) (A) (A)
                 (A) (A) (A) (A) (A) (A) (A) (A) (A) (A) (A) (A)
                 (A) (A) (A) (A) (A) (A) (A) (A) (A) (A) (A) (A)
                 (A) (A) (A) (A) (A) (A) (A) (A) (A) (A) (A) (A)
                 (A) (A) (A) (A) (A) (A) (A) (A) (A) (A) (A) (A)
                 (A) (A) (A) (A) (A) (A) (A) (A) (A) (A) (A) (A)
                 (A) (A) (A) (A) (A) (A) (A) (A) (A) (A) (A) (A)
                 (A) (A) (A) (A) (A) (A) (A) (A) (A) (A) (A) (A)
                 (A) (A) (A) (A) (A) (A) (A) (A) (A) (A) (A) (A)
                 (A) (A) (A) (A) (A) (A) (A) (A) (A) (A) (A) (A)
                 (A) (A) (A)
 Beta  Orbitals:
       Occupied  (A) (A) (A) (A) (A) (A) (A) (A) (A) (A) (A) (A)
                 (A) (A) (A) (A) (A) (A) (A) (A) (A) (A) (A) (A)
                 (A) (A) (A) (A) (A) (A) (A) (A) (A) (A) (A) (A)
                 (A) (A) (A) (A) (A) (A) (A) (A)
       Virtual   (A) (A) (A) (A) (A) (A) (A) (A) (A) (A) (A) (A)
                 (A) (A) (A) (A) (A) (A) (A) (A) (A) (A) (A) (A)
                 (A) (A) (A) (A) (A) (A) (A) (A) (A) (A) (A) (A)
                 (A) (A) (A) (A) (A) (A) (A) (A) (A) (A) (A) (A)
                 (A) (A) (A) (A) (A) (A) (A) (A) (A) (A) (A) (A)
                 (A) (A) (A) (A) (A) (A) (A) (A) (A) (A) (A) (A)
                 (A) (A) (A) (A) (A) (A) (A) (A) (A) (A) (A) (A)
                 (A) (A) (A) (A) (A) (A) (A) (A) (A) (A) (A) (A)
                 (A) (A) (A) (A) (A) (A) (A) (A) (A) (A) (A) (A)
                 (A) (A) (A) (A) (A) (A) (A) (A) (A) (A) (A) (A)
                 (A) (A) (A) (A) (A) (A) (A) (A) (A) (A) (A) (A)
                 (A) (A) (A) (A) (A) (A) (A) (A) (A) (A) (A) (A)
                 (A) (A) (A) (A) (A) (A) (A) (A) (A) (A) (A) (A)
                 (A) (A) (A) (A) (A) (A) (A) (A) (A) (A) (A) (A)
                 (A) (A) (A) (A) (A) (A) (A) (A) (A) (A) (A) (A)
                 (A) (A) (A) (A) (A) (A) (A) (A) (A) (A) (A) (A)
                 (A) (A) (A) (A) (A) (A) (A) (A) (A) (A) (A) (A)
                 (A) (A) (A) (A) (A) (A) (A) (A) (A) (A) (A) (A)
                 (A) (A) (A) (A) (A) (A) (A) (A) (A) (A) (A) (A)
                 (A) (A) (A) (A) (A) (A) (A) (A) (A) (A) (A) (A)
                 (A) (A) (A) (A) (A) (A) (A) (A) (A) (A) (A) (A)
                 (A) (A) (A) (A) (A) (A) (A) (A) (A) (A) (A) (A)
                 (A) (A) (A) (A)
 The electronic state is 2-A.
 Alpha  occ. eigenvalues --  -19.17836 -19.16774 -10.21783 -10.18572 -10.18494
 Alpha  occ. eigenvalues --  -10.18426 -10.16818 -10.16794 -10.16281 -10.16041
 Alpha  occ. eigenvalues --  -10.16033  -1.12399  -0.89282  -0.82526  -0.79822
 Alpha  occ. eigenvalues --   -0.75218  -0.69580  -0.67936  -0.67279  -0.61368
 Alpha  occ. eigenvalues --   -0.57361  -0.55948  -0.52325  -0.49613  -0.47662
 Alpha  occ. eigenvalues --   -0.46746  -0.45608  -0.44705  -0.43143  -0.42648
 Alpha  occ. eigenvalues --   -0.40985  -0.40470  -0.39025  -0.37814  -0.36822
 Alpha  occ. eigenvalues --   -0.36685  -0.35312  -0.35085  -0.34172  -0.32609
 Alpha  occ. eigenvalues --   -0.31841  -0.31638  -0.29076  -0.27685  -0.22978
 Alpha virt. eigenvalues --    0.02622   0.04027   0.05397   0.05888   0.06611
 Alpha virt. eigenvalues --    0.08057   0.08528   0.08909   0.09420   0.10721
 Alpha virt. eigenvalues --    0.11112   0.11868   0.12361   0.13382   0.13766
 Alpha virt. eigenvalues --    0.14631   0.14989   0.16500   0.16537   0.17920
 Alpha virt. eigenvalues --    0.19018   0.20869   0.22074   0.22817   0.23464
 Alpha virt. eigenvalues --    0.24222   0.25197   0.25774   0.26192   0.28782
 Alpha virt. eigenvalues --    0.29238   0.31804   0.32520   0.33823   0.34920
 Alpha virt. eigenvalues --    0.36024   0.36910   0.38362   0.40612   0.41247
 Alpha virt. eigenvalues --    0.42968   0.44433   0.45372   0.45824   0.47130
 Alpha virt. eigenvalues --    0.49719   0.51208   0.52410   0.53003   0.53838
 Alpha virt. eigenvalues --    0.54631   0.55700   0.56586   0.57089   0.57865
 Alpha virt. eigenvalues --    0.58586   0.58788   0.59044   0.59446   0.59706
 Alpha virt. eigenvalues --    0.60486   0.60899   0.61027   0.61645   0.62746
 Alpha virt. eigenvalues --    0.62859   0.64320   0.64537   0.65318   0.66238
 Alpha virt. eigenvalues --    0.66711   0.67975   0.69199   0.70436   0.74724
 Alpha virt. eigenvalues --    0.78360   0.78954   0.83030   0.83258   0.86362
 Alpha virt. eigenvalues --    0.88640   0.90738   0.94346   0.95534   0.96967
 Alpha virt. eigenvalues --    0.99247   1.00605   1.05871   1.06532   1.07635
 Alpha virt. eigenvalues --    1.10389   1.12989   1.14577   1.18172   1.19169
 Alpha virt. eigenvalues --    1.20306   1.21172   1.26000   1.27247   1.32116
 Alpha virt. eigenvalues --    1.32669   1.36461   1.37412   1.38697   1.39003
 Alpha virt. eigenvalues --    1.39921   1.41883   1.42878   1.44617   1.45748
 Alpha virt. eigenvalues --    1.46555   1.47740   1.48337   1.49717   1.51208
 Alpha virt. eigenvalues --    1.52728   1.53011   1.53638   1.53945   1.54533
 Alpha virt. eigenvalues --    1.55309   1.56299   1.57880   1.59480   1.60556
 Alpha virt. eigenvalues --    1.61432   1.62498   1.63981   1.64403   1.64989
 Alpha virt. eigenvalues --    1.66840   1.67650   1.68183   1.68800   1.71092
 Alpha virt. eigenvalues --    1.72674   1.72772   1.74686   1.75194   1.76048
 Alpha virt. eigenvalues --    1.77717   1.79969   1.81144   1.81805   1.83013
 Alpha virt. eigenvalues --    1.85463   1.87785   1.90813   1.92758   1.94670
 Alpha virt. eigenvalues --    1.96628   1.97829   2.00635   2.01484   2.03965
 Alpha virt. eigenvalues --    2.04210   2.06233   2.07965   2.09411   2.10482
 Alpha virt. eigenvalues --    2.12352   2.13348   2.14387   2.16083   2.17489
 Alpha virt. eigenvalues --    2.19146   2.21192   2.22904   2.25033   2.28555
 Alpha virt. eigenvalues --    2.30127   2.32181   2.34016   2.36688   2.37286
 Alpha virt. eigenvalues --    2.39454   2.40509   2.41770   2.42247   2.46159
 Alpha virt. eigenvalues --    2.47339   2.48010   2.48801   2.49236   2.50472
 Alpha virt. eigenvalues --    2.51380   2.52338   2.53515   2.54011   2.55528
 Alpha virt. eigenvalues --    2.57428   2.58607   2.58988   2.60416   2.61471
 Alpha virt. eigenvalues --    2.62195   2.64424   2.64916   2.65517   2.66751
 Alpha virt. eigenvalues --    2.68186   2.69262   2.71849   2.72958   2.75732
 Alpha virt. eigenvalues --    2.77098   2.79026   2.80071   2.80913   2.82105
 Alpha virt. eigenvalues --    2.85186   2.85819   2.86605   2.89889   2.90345
 Alpha virt. eigenvalues --    2.93062   2.94465   2.96431   3.00815   3.09730
 Alpha virt. eigenvalues --    3.11330   3.15156   3.16067   3.18779   3.24426
 Alpha virt. eigenvalues --    3.28298   3.30969   3.34651   3.41523   3.45124
 Alpha virt. eigenvalues --    3.68419   3.70663   3.74434   3.76275   3.78744
 Alpha virt. eigenvalues --    3.79706   3.80343   3.80749   3.83122   3.84810
 Alpha virt. eigenvalues --    3.87495   3.94641   3.97770   4.00921   4.10867
 Alpha virt. eigenvalues --    4.18940   4.29590   4.29782   4.37728   4.38805
 Alpha virt. eigenvalues --    4.74928   4.85855   4.95890   5.24303   5.34862
 Alpha virt. eigenvalues --    5.81366  23.78274  23.80578  23.82268  23.82563
 Alpha virt. eigenvalues --   23.84381  23.91166  23.92048  23.93424  23.94409
 Alpha virt. eigenvalues --   49.79772  49.85726
  Beta  occ. eigenvalues --  -19.17628 -19.15668 -10.21792 -10.18511 -10.18429
  Beta  occ. eigenvalues --  -10.17619 -10.16819 -10.16794 -10.16239 -10.16040
  Beta  occ. eigenvalues --  -10.16033  -1.11194  -0.87738  -0.82144  -0.79472
  Beta  occ. eigenvalues --   -0.74991  -0.68527  -0.67880  -0.66657  -0.61229
  Beta  occ. eigenvalues --   -0.56735  -0.55695  -0.51391  -0.49057  -0.47401
  Beta  occ. eigenvalues --   -0.46257  -0.44968  -0.44036  -0.42831  -0.42031
  Beta  occ. eigenvalues --   -0.40728  -0.39819  -0.38890  -0.37652  -0.36526
  Beta  occ. eigenvalues --   -0.36151  -0.35001  -0.34444  -0.33927  -0.32439
  Beta  occ. eigenvalues --   -0.31732  -0.31466  -0.27653  -0.26297
  Beta virt. eigenvalues --   -0.11495   0.02887   0.04277   0.05506   0.06296
  Beta virt. eigenvalues --    0.06654   0.08232   0.08567   0.08991   0.09618
  Beta virt. eigenvalues --    0.10827   0.11188   0.11955   0.12392   0.13411
  Beta virt. eigenvalues --    0.13863   0.14737   0.15077   0.16531   0.16694
  Beta virt. eigenvalues --    0.18116   0.19194   0.21011   0.22373   0.23055
  Beta virt. eigenvalues --    0.23696   0.24353   0.25507   0.25857   0.26849
  Beta virt. eigenvalues --    0.28992   0.29871   0.31842   0.32651   0.34051
  Beta virt. eigenvalues --    0.35176   0.36160   0.36974   0.38446   0.40673
  Beta virt. eigenvalues --    0.41377   0.43201   0.44683   0.45488   0.45926
  Beta virt. eigenvalues --    0.48276   0.50704   0.51419   0.52834   0.53149
  Beta virt. eigenvalues --    0.54017   0.54737   0.55895   0.56666   0.57321
  Beta virt. eigenvalues --    0.58034   0.58676   0.58863   0.59111   0.59680
  Beta virt. eigenvalues --    0.59874   0.60563   0.61066   0.61109   0.61866
  Beta virt. eigenvalues --    0.62894   0.62964   0.64404   0.64661   0.65507
  Beta virt. eigenvalues --    0.66441   0.66943   0.68140   0.69484   0.70548
  Beta virt. eigenvalues --    0.74902   0.78717   0.79525   0.83445   0.83988
  Beta virt. eigenvalues --    0.86651   0.88920   0.91052   0.94481   0.95803
  Beta virt. eigenvalues --    0.97493   0.99578   1.00716   1.06060   1.06680
  Beta virt. eigenvalues --    1.08304   1.10609   1.13230   1.15038   1.18403
  Beta virt. eigenvalues --    1.19270   1.20541   1.21820   1.26080   1.27328
  Beta virt. eigenvalues --    1.32273   1.32730   1.36898   1.37470   1.38966
  Beta virt. eigenvalues --    1.39042   1.40556   1.41944   1.42924   1.44778
  Beta virt. eigenvalues --    1.46009   1.47229   1.47917   1.48532   1.49791
  Beta virt. eigenvalues --    1.51238   1.52904   1.53192   1.53894   1.54324
  Beta virt. eigenvalues --    1.54664   1.55563   1.56565   1.57982   1.59686
  Beta virt. eigenvalues --    1.60642   1.61627   1.62613   1.64049   1.64805
  Beta virt. eigenvalues --    1.65209   1.66989   1.67907   1.68328   1.69047
  Beta virt. eigenvalues --    1.71189   1.72785   1.73014   1.74815   1.75344
  Beta virt. eigenvalues --    1.76163   1.77795   1.80165   1.81434   1.81864
  Beta virt. eigenvalues --    1.83095   1.85582   1.87941   1.90907   1.93079
  Beta virt. eigenvalues --    1.94842   1.96897   1.98238   2.01020   2.01646
  Beta virt. eigenvalues --    2.04063   2.04407   2.06517   2.08094   2.09989
  Beta virt. eigenvalues --    2.11573   2.12496   2.13521   2.14938   2.16181
  Beta virt. eigenvalues --    2.17596   2.19493   2.21356   2.23104   2.25113
  Beta virt. eigenvalues --    2.28975   2.30342   2.32271   2.34425   2.36774
  Beta virt. eigenvalues --    2.37393   2.39614   2.40623   2.42060   2.42407
  Beta virt. eigenvalues --    2.46411   2.47479   2.48096   2.48869   2.49250
  Beta virt. eigenvalues --    2.50594   2.51442   2.52535   2.53704   2.54052
  Beta virt. eigenvalues --    2.55692   2.57548   2.58884   2.59158   2.60611
  Beta virt. eigenvalues --    2.61691   2.62307   2.64791   2.65203   2.65707
  Beta virt. eigenvalues --    2.66987   2.68351   2.69403   2.72156   2.73183
  Beta virt. eigenvalues --    2.75962   2.77227   2.79207   2.80244   2.81020
  Beta virt. eigenvalues --    2.82217   2.85262   2.85945   2.86663   2.90023
  Beta virt. eigenvalues --    2.90442   2.93168   2.94591   2.97241   3.02234
  Beta virt. eigenvalues --    3.09876   3.11655   3.15243   3.16476   3.19288
  Beta virt. eigenvalues --    3.26826   3.30058   3.31777   3.34849   3.41551
  Beta virt. eigenvalues --    3.45332   3.68560   3.71465   3.75198   3.76633
  Beta virt. eigenvalues --    3.78787   3.79778   3.80400   3.80960   3.83237
  Beta virt. eigenvalues --    3.84961   3.89722   3.94834   3.98328   4.01045
  Beta virt. eigenvalues --    4.10886   4.19128   4.29617   4.30237   4.37786
  Beta virt. eigenvalues --    4.38880   4.75521   4.86703   4.96785   5.26672
  Beta virt. eigenvalues --    5.36115   5.82174  23.78301  23.80887  23.82500
  Beta virt. eigenvalues --   23.82723  23.84497  23.91381  23.92063  23.93431
  Beta virt. eigenvalues --   23.94433  49.80707  49.86098
          Condensed to atoms (all electrons):
              1          2          3          4          5          6
     1  C    4.884875   0.402203   0.409902   0.397978   0.351377  -0.037686
     2  H    0.402203   0.584447  -0.029486  -0.028375  -0.033590  -0.007177
     3  H    0.409902  -0.029486   0.560245  -0.028214  -0.038287   0.008295
     4  H    0.397978  -0.028375  -0.028214   0.585063  -0.030279  -0.005771
     5  C    0.351377  -0.033590  -0.038287  -0.030279   5.144433   0.398876
     6  H   -0.037686  -0.007177   0.008295  -0.005771   0.398876   0.610928
     7  C   -0.071565  -0.003786  -0.006358   0.008113   0.333771  -0.034488
     8  H   -0.004000   0.003849  -0.000493  -0.000361  -0.034123  -0.012849
     9  H   -0.005169  -0.001073   0.004352   0.000339  -0.044835   0.008781
    10  C    0.006814   0.000259  -0.000191  -0.000402  -0.038303  -0.002769
    11  H   -0.000317  -0.000034  -0.000016   0.000028   0.004776  -0.000056
    12  H    0.000449  -0.000001   0.000031  -0.000020  -0.008183   0.003167
    13  C   -0.000278  -0.000001   0.000065   0.000006   0.000519  -0.000160
    14  H   -0.000177  -0.000029   0.000138   0.000021   0.000078  -0.000084
    15  H    0.000017   0.000002  -0.000007  -0.000001  -0.000348   0.000020
    16  C    0.000008  -0.000001  -0.000002   0.000000   0.000187   0.000045
    17  H    0.000000   0.000000  -0.000001   0.000000   0.000044  -0.000011
    18  C    0.000000   0.000000   0.000001   0.000000   0.000000   0.000000
    19  H    0.000000   0.000000  -0.000002   0.000000   0.000002   0.000000
    20  H    0.000000   0.000000   0.000000   0.000000   0.000000   0.000000
    21  H    0.000000   0.000000   0.000000   0.000000   0.000000   0.000000
    22  C   -0.060295   0.007751  -0.008890  -0.005320   0.342554  -0.041630
    23  H   -0.014117   0.000030  -0.000465   0.004518  -0.034317   0.000915
    24  H    0.009350  -0.000412   0.000601  -0.000213  -0.028340  -0.009679
    25  C   -0.000009   0.000001  -0.000010   0.000000   0.000404  -0.000103
    26  H    0.000000   0.000000   0.000000   0.000000  -0.000013   0.000002
    27  H    0.000019  -0.000006   0.000061  -0.000001  -0.001778   0.000155
    28  H   -0.000007   0.000000  -0.000001   0.000001  -0.000114   0.000009
    29  O   -0.000922  -0.000132   0.007439  -0.000390  -0.050731   0.004344
    30  O   -0.000148   0.000011  -0.000213  -0.000017   0.006559  -0.000315
              7          8          9         10         11         12
     1  C   -0.071565  -0.004000  -0.005169   0.006814  -0.000317   0.000449
     2  H   -0.003786   0.003849  -0.001073   0.000259  -0.000034  -0.000001
     3  H   -0.006358  -0.000493   0.004352  -0.000191  -0.000016   0.000031
     4  H    0.008113  -0.000361   0.000339  -0.000402   0.000028  -0.000020
     5  C    0.333771  -0.034123  -0.044835  -0.038303   0.004776  -0.008183
     6  H   -0.034488  -0.012849   0.008781  -0.002769  -0.000056   0.003167
     7  C    4.977649   0.401039   0.419350   0.341901  -0.027798  -0.050622
     8  H    0.401039   0.597669  -0.033816  -0.029399  -0.013596   0.002736
     9  H    0.419350  -0.033816   0.581389  -0.047313   0.002611   0.007531
    10  C    0.341901  -0.029399  -0.047313   4.980101   0.402962   0.416115
    11  H   -0.027798  -0.013596   0.002611   0.402962   0.588988  -0.034637
    12  H   -0.050622   0.002736   0.007531   0.416115  -0.034637   0.616427
    13  C   -0.054716   0.005633  -0.010045   0.339281  -0.032170  -0.049500
    14  H   -0.007670   0.000419  -0.000128  -0.046722   0.007183   0.000529
    15  H   -0.000677  -0.000177   0.002697  -0.033142  -0.014501   0.008174
    16  C    0.005876  -0.000364   0.000604  -0.047704   0.000682  -0.007668
    17  H   -0.000157   0.000010  -0.000022  -0.003138   0.003020   0.000054
    18  C   -0.000278   0.000016  -0.000051   0.007144  -0.000306   0.000308
    19  H   -0.000035  -0.000001  -0.000023   0.000151   0.000013   0.000082
    20  H    0.000014  -0.000001   0.000005  -0.000414   0.000022  -0.000018
    21  H   -0.000018   0.000001   0.000008   0.000045  -0.000036   0.000016
    22  C   -0.065900   0.007230  -0.005594  -0.009348   0.000262  -0.004139
    23  H    0.009337  -0.000252   0.000010  -0.000179   0.000026  -0.000374
    24  H   -0.009388   0.000204  -0.000702  -0.002151  -0.000236   0.000448
    25  C   -0.000034   0.000004   0.000023  -0.006436  -0.000344   0.000551
    26  H    0.000023   0.000000   0.000005   0.000161  -0.000009  -0.000152
    27  H    0.000069  -0.000018  -0.000062  -0.001767   0.000020   0.000286
    28  H   -0.000017   0.000008  -0.000009   0.000142   0.000087   0.000847
    29  O    0.010868   0.000168   0.002462  -0.000443   0.000059  -0.000776
    30  O   -0.000481   0.000004  -0.000107   0.000856  -0.000008  -0.000679
             13         14         15         16         17         18
     1  C   -0.000278  -0.000177   0.000017   0.000008   0.000000   0.000000
     2  H   -0.000001  -0.000029   0.000002  -0.000001   0.000000   0.000000
     3  H    0.000065   0.000138  -0.000007  -0.000002  -0.000001   0.000001
     4  H    0.000006   0.000021  -0.000001   0.000000   0.000000   0.000000
     5  C    0.000519   0.000078  -0.000348   0.000187   0.000044   0.000000
     6  H   -0.000160  -0.000084   0.000020   0.000045  -0.000011   0.000000
     7  C   -0.054716  -0.007670  -0.000677   0.005876  -0.000157  -0.000278
     8  H    0.005633   0.000419  -0.000177  -0.000364   0.000010   0.000016
     9  H   -0.010045  -0.000128   0.002697   0.000604  -0.000022  -0.000051
    10  C    0.339281  -0.046722  -0.033142  -0.047704  -0.003138   0.007144
    11  H   -0.032170   0.007183  -0.014501   0.000682   0.003020  -0.000306
    12  H   -0.049500   0.000529   0.008174  -0.007668   0.000054   0.000308
    13  C    5.022431   0.418954   0.399415   0.358937  -0.049694  -0.064497
    14  H    0.418954   0.546243  -0.031734  -0.039036   0.008712  -0.004764
    15  H    0.399415  -0.031734   0.601204  -0.037413  -0.007121  -0.006863
    16  C    0.358937  -0.039036  -0.037413   5.040308   0.402178   0.372930
    17  H   -0.049694   0.008712  -0.007121   0.402178   0.622481  -0.039817
    18  C   -0.064497  -0.004764  -0.006863   0.372930  -0.039817   4.874342
    19  H   -0.006877   0.004459  -0.000912  -0.039563   0.009729   0.402784
    20  H    0.008354  -0.000154   0.000115  -0.031245  -0.006803   0.400287
    21  H   -0.005579  -0.000550   0.004744  -0.032669  -0.006372   0.403195
    22  C   -0.000396  -0.002070  -0.000092   0.000800  -0.000008  -0.000016
    23  H    0.000014   0.000320   0.000013  -0.000082  -0.000006   0.000001
    24  H    0.000010   0.000648  -0.000073   0.000554  -0.000010   0.000043
    25  C   -0.067183  -0.009458   0.009413   0.328344  -0.047965  -0.070031
    26  H    0.006268   0.000051  -0.000387  -0.031184  -0.000235  -0.008121
    27  H   -0.006168   0.003716   0.000188  -0.015162   0.003221  -0.000489
    28  H   -0.001197  -0.000132  -0.000417  -0.031657  -0.007698   0.006687
    29  O   -0.006800   0.010319   0.000462  -0.001940  -0.000109  -0.000036
    30  O   -0.000233  -0.000847  -0.000032   0.001717  -0.000147  -0.000551
             19         20         21         22         23         24
     1  C    0.000000   0.000000   0.000000  -0.060295  -0.014117   0.009350
     2  H    0.000000   0.000000   0.000000   0.007751   0.000030  -0.000412
     3  H   -0.000002   0.000000   0.000000  -0.008890  -0.000465   0.000601
     4  H    0.000000   0.000000   0.000000  -0.005320   0.004518  -0.000213
     5  C    0.000002   0.000000   0.000000   0.342554  -0.034317  -0.028340
     6  H    0.000000   0.000000   0.000000  -0.041630   0.000915  -0.009679
     7  C   -0.000035   0.000014  -0.000018  -0.065900   0.009337  -0.009388
     8  H   -0.000001  -0.000001   0.000001   0.007230  -0.000252   0.000204
     9  H   -0.000023   0.000005   0.000008  -0.005594   0.000010  -0.000702
    10  C    0.000151  -0.000414   0.000045  -0.009348  -0.000179  -0.002151
    11  H    0.000013   0.000022  -0.000036   0.000262   0.000026  -0.000236
    12  H    0.000082  -0.000018   0.000016  -0.004139  -0.000374   0.000448
    13  C   -0.006877   0.008354  -0.005579  -0.000396   0.000014   0.000010
    14  H    0.004459  -0.000154  -0.000550  -0.002070   0.000320   0.000648
    15  H   -0.000912   0.000115   0.004744  -0.000092   0.000013  -0.000073
    16  C   -0.039563  -0.031245  -0.032669   0.000800  -0.000082   0.000554
    17  H    0.009729  -0.006803  -0.006372  -0.000008  -0.000006  -0.000010
    18  C    0.402784   0.400287   0.403195  -0.000016   0.000001   0.000043
    19  H    0.575958  -0.030373  -0.029462   0.000041  -0.000008  -0.000046
    20  H   -0.030373   0.585216  -0.027660   0.000000   0.000000   0.000006
[...]
 07165,0.00012632,0.00033390,-0.00132586,-0.00102720,-0.00003966,0.0002
 1808,0.00017295,0.00118821,-0.00140676,0.00052189,0.00008952,0.0002175
 9,0.00009689,0.00001007,-0.00007602,-0.00001045,-0.00010092,-0.0000346
 8,0.00012158,0.00017922,0.00012167,-0.00000478,-0.00000795,0.00000747,
 -0.00001653,-0.00001621,-0.00002941,-0.00005339,-0.00000301,0.00000247
 ,0.00001907,-0.00003147,-0.00001190,0.00000614,0.00001087,0.00000026,-
 0.00000311,0.01166804,-0.04918142,0.00755658,0.01687409,-0.00074620,0.
 01874057,-0.00816780,0.05222315,-0.00006212,-0.00047135,0.00120847,-0.
 00005742,0.00024131,-0.00007080,0.00020558,0.00009738,0.00018735,-0.00
 009229,0.00009155,-0.00000679,-0.00152544,-0.00010071,-0.00172044,0.00
 013828,-0.00021429,0.00117677,-0.00070329,0.00010053,-0.00025058,0.000
 05969,-0.00006958,0.00001718,0.00004288,-0.00000113,0.00011332,-0.0003
 3685,0.00063911,-0.00085402,0.00002711,0.00034207,0.00040277,-0.000040
 50,0.00026392,0.00136249,0.00035279,0.00009939,-0.00033050,-0.00011991
 ,0.00002264,0.00008618,-0.00010071,-0.00004652,0.00007261,0.00017810,-
 0.00037291,0.00043432,0.00009917,-0.00010382,-0.00010596,-0.00007361,0
 .00002749,-0.00000673,-0.00000153,-0.00000206,0.00000901,-0.00002079,-
 0.00000795,0.00001871,-0.00000401,-0.00001017,0.00000357,-0.12235696,0
 .00931000,-0.19783448,0.00014564,-0.00016819,0.00426410,0.13157423,-0.
 01330801,0.22900228,-0.00023423,0.00034644,0.00026547,0.00024332,0.000
 17843,0.00000829,-0.00010519,-0.00015778,-0.00019194,-0.00018421,0.000
 03889,-0.00005940,0.00001454,-0.00100007,-0.00120042,0.00040369,0.0005
 6579,0.00005479,0.00038746,-0.00057568,0.00030912,-0.00032051,0.000234
 98,-0.00010531,0.00001411,-0.00005724,0.00003295,0.00078302,-0.0004568
 9,-0.00053377,-0.00017843,-0.00003302,-0.00017797,-0.00032020,-0.00090
 729,-0.00029505,0.00922829,-0.02099079,-0.01070270,0.00078001,-0.00040
 231,-0.00029600,-0.00500254,-0.00333198,-0.00309169,-0.07739568,0.0074
 1259,0.02131890,-0.00266203,0.01220909,0.00403525,-0.00945519,0.021003
 70,0.01385452,0.00107034,0.00015556,-0.00100286,0.00028470,0.00124159,
 0.00022459,-0.00257524,-0.00105795,0.00327915,-0.00421860,-0.00113304,
 0.00499148,0.00070941,-0.00000630,-0.00103437,-0.00006720,0.00019776,-
 0.00140532,0.39533401,0.00016690,-0.00035246,-0.00024891,-0.00023946,-
 0.00017206,-0.00001388,0.00011715,0.00014925,0.00020947,0.00016379,-0.
 00002665,0.00005187,0.00003698,0.00086035,0.00089755,-0.00038369,-0.00
 049054,-0.00002824,-0.00016985,0.00078384,-0.00049220,0.00041137,-0.00
 024955,0.00004874,-0.00002265,0.00000542,0.00000414,0.00034705,-0.0003
 7299,0.00049628,0.00030779,-0.00016405,-0.00035581,-0.00065877,-0.0004
 1743,-0.00084716,-0.00715906,-0.02187122,-0.00953280,0.00107600,0.0019
 9525,0.00179860,-0.00122040,0.00021523,-0.00008284,0.02445179,-0.15298
 286,-0.04567975,0.00687334,-0.02523160,-0.00814006,0.00400005,0.002442
 47,-0.00352278,-0.00064514,0.00039359,0.00095161,-0.00121609,0.0002918
 5,0.00088042,-0.00214677,0.00097358,0.00172164,0.00404515,0.00183867,-
 0.00584018,-0.00075037,0.00005363,0.00115483,0.00011596,-0.00043521,0.
 00130367,0.15109166,0.41698688,-0.00012569,0.00013988,0.00013989,0.000
 11967,0.00011189,-0.00002112,-0.00010899,-0.00010194,-0.00016844,-0.00
 009295,0.00000609,-0.00002595,-0.00009980,-0.00053852,-0.00059693,0.00
 033849,0.00032168,-0.00003682,0.00048938,-0.00013420,-0.00001326,-0.00
 003727,0.00014007,-0.00010493,-0.00019675,-0.00010539,-0.00021081,-0.0
 0017128,0.00029180,0.00160636,-0.00007433,-0.00010885,-0.00037766,0.00
 072952,0.00021961,-0.00067421,-0.00115691,-0.01166140,-0.00586961,0.00
 102241,-0.00047992,-0.00005500,-0.00109018,-0.00055561,-0.00013315,0.0
 2979839,-0.05200234,-0.09099641,-0.00313215,0.01266773,0.00767120,0.00
 991161,-0.02483071,-0.01655843,-0.00063324,-0.00041146,0.00107212,-0.0
 0129676,0.00002462,0.00104383,0.00339154,-0.00010214,-0.00357040,-0.00
 212801,-0.00231865,0.00625333,0.00043117,-0.00010657,-0.00148308,-0.00
 002748,0.00016215,-0.00134515,-0.15978435,0.07466555,0.41491572,-0.000
 00105,-0.00006084,-0.00000854,-0.00003853,-0.00002655,-0.00001266,0.00
 001981,0.00001535,0.00001824,0.00000243,0.00001012,0.00000483,0.000013
 14,0.00010215,-0.00000344,-0.00003754,-0.00004376,0.00000283,0.0000306
 8,0.00005261,-0.00003473,-0.00000056,-0.00004447,-0.00000105,-0.000037
 13,0.00000884,-0.00003628,-0.00002746,0.00009946,0.00033353,0.00000791
 ,-0.00011787,-0.00010791,0.00006629,-0.00007718,-0.00037809,-0.0007818
 7,0.00109993,0.00083596,-0.00007377,0.00007289,0.00013879,0.00060468,0
 .00007126,0.00022930,0.00784109,0.00615181,0.00259610,-0.00056135,-0.0
 0038186,-0.00076074,0.00071358,0.00116978,0.00055613,0.00003596,-0.000
 09558,-0.00023067,0.00033467,0.00011206,-0.00023900,0.00011790,0.00010
 443,-0.00002774,0.00067520,0.00028706,-0.00047939,-0.00017143,0.000040
 01,0.00009086,0.00015486,-0.00011427,-0.00000423,-0.19408543,-0.149328
 64,0.00264275,0.20235092,-0.00003525,0.00010517,0.00005939,0.00005409,
 0.00002847,0.00000484,-0.00002319,-0.00003395,-0.00004016,-0.00004851,
 0.00001782,-0.00001424,0.00000976,-0.00026016,-0.00018524,0.00005579,0
 .00010342,0.00001888,0.00004201,-0.00004149,0.00010101,-0.00009988,0.0
 0003533,-0.00000728,0.00001074,-0.00000550,0.00002316,0.00051405,0.000
 17905,-0.00051249,-0.00004227,0.00001665,0.00002081,0.00014555,0.00019
 270,0.00020266,0.00364572,-0.00378799,-0.00077244,0.00017775,0.0000647
 3,-0.00012018,-0.00146198,-0.00072704,-0.00080464,-0.02163097,-0.01184
 592,-0.00378244,0.00053701,-0.00018801,0.00062404,-0.00140973,0.000811
 90,0.00115237,0.00016124,0.00005909,-0.00026042,0.00097820,0.00009906,
 -0.00027727,0.00015995,0.00027586,0.00031688,-0.00066874,-0.00042016,0
 .00123951,0.00011613,0.00001590,-0.00023932,-0.00018736,0.00003172,-0.
 00028664,-0.13737070,-0.16114511,-0.01443361,0.15264743,0.17444758,0.0
 0003129,-0.00001708,-0.00004924,-0.00002304,-0.00002580,0.00000865,0.0
 0002370,0.00001934,0.00004326,0.00002014,-0.00000465,0.00000696,0.0000
 0744,0.00011601,0.00016676,-0.00008331,-0.00006741,0.00000731,-0.00009
 589,0.00014011,0.00007882,0.00003383,-0.00003710,0.00003539,0.00011101
 ,0.00002797,0.00005212,0.00036064,0.00001965,-0.00050202,0.00005313,0.
 00010290,0.00012195,-0.00027826,0.00011006,0.00038673,0.00036931,-0.00
 280842,-0.00138420,-0.00004303,0.00019336,0.00021392,-0.00058994,-0.00
 058933,-0.00029103,-0.00867470,-0.00761278,0.00227469,-0.00015639,-0.0
 0093400,-0.00071495,-0.00118053,-0.00025402,0.00046561,-0.00016681,0.0
 0007325,-0.00038364,0.00046861,-0.00023556,0.00009230,0.00001276,0.000
 40582,0.00012205,0.00067609,0.00036631,-0.00128021,-0.00008058,0.00000
 084,0.00030478,-0.00008437,-0.00002622,0.00035070,-0.00220805,-0.02172
 815,-0.04077128,-0.00033944,0.01762794,0.03945567,0.00024780,-0.000070
 80,-0.00041371,-0.00018116,-0.00018658,0.00011009,0.00011900,0.0001677
 2,0.00032696,0.00018318,-0.00003302,0.00004565,0.00061036,0.00068784,0
 .00097881,-0.00036959,-0.00044727,-0.00003031,-0.00046220,0.00046618,-
 0.00038995,0.00026321,-0.00021936,0.00012517,0.00009355,0.00007078,0.0
 0015411,-0.00010933,-0.00009683,-0.00012335,0.00022468,-0.00001945,0.0
 0005362,-0.00027196,-0.00012591,0.00022532,-0.00216155,-0.00242923,-0.
 00085133,-0.00011936,0.00037688,0.00057711,0.00043425,0.00021689,0.000
 24082,-0.00575448,0.01045559,-0.00630657,-0.00078684,0.00062771,0.0029
 6094,0.00081650,0.00060224,-0.00080103,0.00011368,-0.00039253,0.000383
 07,0.00013456,-0.00000524,-0.00007484,-0.00010669,0.00008520,0.0004198
 7,0.00328991,0.00477930,-0.00913524,-0.00103523,0.00004625,0.00217359,
 -0.00030778,-0.00122587,0.00327686,0.04804252,-0.05914329,0.04996654,-
 0.01324037,0.00991677,-0.01317955,-0.01880664,-0.00005540,0.00012293,0
 .00017878,0.00010979,0.00011740,0.00001574,-0.00003835,-0.00006536,-0.
 00007816,-0.00010994,0.00000326,-0.00001368,-0.00037145,-0.00035361,-0
 .00048796,0.00030893,0.00021798,-0.00001180,0.00017475,-0.00037847,0.0
 0013667,-0.00010293,0.00017309,-0.00008611,-0.00008399,-0.00005383,-0.
 00009639,-0.00019543,-0.00008559,0.00010680,-0.00001185,0.00019209,-0.
 00002196,0.00017728,-0.00037858,0.00012406,0.00241567,0.00038048,0.001
 48747,0.00023543,-0.00019255,-0.00115955,-0.00056451,0.00014887,-0.000
 28938,0.00942725,-0.01329735,0.00759112,0.00121700,-0.00188400,-0.0024
 3682,-0.00090420,-0.00020798,0.00054582,0.00002505,0.00042367,-0.00016
 747,-0.00020365,0.00005885,0.00001640,0.00001549,-0.00014568,-0.000214
 16,-0.00382496,-0.00169593,0.00179445,0.00068068,-0.00024504,-0.000801
 60,0.00085886,0.00094848,-0.00085228,-0.05079458,0.02064114,-0.0361835
 1,-0.00166893,-0.00176582,0.00121879,0.06407097,0.03370606,0.00005773,
 -0.00037704,-0.00027316,-0.00021621,-0.00014388,-0.00001500,0.00006807
 ,0.00010741,0.00016336,0.00014453,-0.00001905,0.00004152,0.00020207,0.
 00077750,0.00011340,-0.00022306,-0.00021415,-0.00002776,-0.00031401,0.
 00033697,-0.00016018,0.00018829,-0.00018214,0.00003975,0.00000267,0.00
 000005,0.00003002,-0.00018801,0.00022351,0.00025758,0.00021303,-0.0001
 0585,-0.00016403,-0.00011026,0.00022562,-0.00035298,-0.00100569,-0.001
 99990,0.00021049,-0.00053541,-0.00010699,-0.00022132,0.00026007,0.0002
 6261,0.00000039,0.00084647,0.00277513,-0.00074433,-0.00032205,-0.00064
 833,0.00169703,0.00061307,-0.00019251,0.00030418,0.00022976,-0.0002588
 7,-0.00041379,0.00000006,-0.00001717,-0.00010490,-0.00015758,0.0002630
 9,0.00000966,0.00529947,0.00183173,-0.00221755,-0.00082460,-0.00001349
 ,0.00083480,-0.00004600,-0.00012646,0.00074672,0.03969536,-0.03442844,
 0.00852308,-0.00458460,0.00479763,-0.00487146,-0.04160888,0.03389600,0
 .00938100,0.00007198,0.00000341,-0.00007521,-0.00003023,-0.00003533,0.
 00001421,0.00001577,0.00003152,0.00004932,0.00003867,-0.00000927,0.000
 01572,0.00003758,0.00010768,0.00039216,-0.00009972,-0.00016178,-0.0000
 1994,-0.00010484,0.00014760,-0.00013553,0.00007801,-0.00003468,0.00003
 551,0.00000347,0.00000149,0.00004306,-0.00025393,-0.00056726,-0.000211
 31,0.00002720,0.00004886,0.00001074,-0.00033710,-0.00082160,-0.0003624
 7,-0.00037865,0.00068217,0.00018828,-0.00013207,0.00006430,0.00005205,
 0.00016596,0.00004871,0.00017722,-0.00257303,0.00013077,0.00594502,0.0
 0079124,-0.00053399,-0.00001898,0.00067835,0.00197622,0.00067563,-0.00
 004453,-0.00016543,0.00005856,0.00046685,-0.00000807,-0.00016499,-0.00
 022110,0.00010660,0.00067217,0.00071146,0.00021604,-0.00062909,-0.0001
 7568,-0.00002274,0.00010465,-0.00141316,0.00001879,0.00002448,-0.09994
 511,-0.02220470,0.11915813,-0.00742975,-0.00271855,0.02100368,-0.00626
 113,0.00785328,-0.01185205,0.11139527,-0.00003956,-0.00004141,0.000018
 23,0.00000430,0.00001930,-0.00001413,-0.00000929,-0.00001391,-0.000022
 52,0.00000772,-0.00000931,0.00000033,-0.00007727,-0.00000347,-0.000227
 32,0.00005442,0.00007425,-0.00000093,-0.00010649,0.00004603,0.00018619
 ,0.00002030,0.00001979,0.00000887,0.00009482,0.00000200,0.00003321,-0.
 00026910,-0.00053056,-0.00018868,-0.00002954,0.00002257,-0.00000461,-0
 .00119358,-0.00060104,-0.00003155,0.00029147,0.00056622,0.00007340,0.0
 0000648,-0.00011707,-0.00003450,-0.00000782,-0.00010835,0.00006999,0.0
 1397472,0.00631124,-0.02242472,-0.00018255,0.00131783,0.00046001,-0.00
 040249,-0.00475937,-0.00174986,-0.00012269,0.00006733,-0.00025434,0.00
 021323,-0.00001737,0.00020092,0.00121352,0.00016186,-0.00129118,-0.000
 49919,-0.00010993,0.00053393,0.00015333,-0.00002113,-0.00003836,0.0003
 4660,0.00036118,-0.00014519,-0.02389294,-0.04890437,0.01862095,-0.0086
 2593,0.00035219,0.01698276,0.00207235,-0.00382342,0.00819649,0.0191141
 4,0.04832984,0.00006501,0.00008666,-0.00006914,0.00001911,-0.00000500,
 0.00004131,0.00000984,0.00000909,0.00004653,0.00001504,-0.00001255,0.0
 0000484,-0.00001004,-0.00002500,0.00034088,-0.00008667,-0.00006830,0.0
 0000089,-0.00021330,0.00010546,0.00013874,0.00002562,0.00000948,0.0000
 4899,0.00014674,0.00003157,0.00013582,0.00026093,-0.00012295,-0.001000
 14,0.00003323,0.00026297,0.00028935,-0.00072043,-0.00003058,0.00135219
 ,0.00059570,0.00039831,-0.00003351,-0.00001943,-0.00000210,0.00007885,
 -0.00009291,-0.00010441,0.00009661,0.00475944,0.00617725,-0.00792871,0
 .00027962,-0.00078024,0.00096294,0.00014022,-0.00361468,-0.00007761,-0
 .00026539,0.00001732,0.00035154,0.00006327,0.00013657,0.00013871,0.000
 75515,0.00024854,-0.00046937,0.00030584,0.00022646,-0.00159938,0.00004
 785,-0.00003601,0.00035981,-0.00034258,-0.00000589,0.00074201,0.133771
 73,0.01255599,-0.24984675,-0.00234317,-0.00143953,0.00354587,-0.002051
 14,0.00543847,-0.01099502,-0.13720131,-0.01734396,0.26057139,0.0003634
 4,-0.00022266,-0.00039818,-0.00000891,-0.00020948,0.00009175,-0.000331
 38,-0.00010666,0.00016341,0.00041912,-0.00001289,0.00024218,-0.0155278
 7,-0.01142776,0.01862842,-0.00180895,-0.00256890,-0.00061797,-0.000113
 88,0.00168314,-0.00128494,0.00020467,0.00018687,0.00023121,0.00029645,
 -0.00037794,0.00009375,-0.00052589,-0.00054806,0.00016797,0.00027680,0
 .00001080,0.00000099,-0.00027838,0.00019317,-0.00000314,-0.00203039,0.
 00059211,0.00194025,-0.00070978,0.00269822,-0.00038977,-0.00016004,0.0
 0091579,-0.00028973,-0.00201995,0.00330081,-0.00448695,-0.00090491,0.0
 0132587,0.00161001,0.00062627,0.00058596,-0.00035509,-0.00001471,-0.00
 030071,0.00012697,0.00018394,-0.00009513,-0.00009752,-0.00015542,0.000
 22760,0.00031975,-0.08684982,0.00415429,0.05910227,-0.01778776,-0.0072
 0955,0.03095818,0.00640136,-0.00337653,-0.00403338,0.01516454,-0.01424
 844,0.01113866,-0.00151435,0.00239776,-0.00230108,-0.04601687,-0.00617
 151,-0.02320956,-0.00304605,0.00168617,-0.00223456,0.27172262,0.000495
 67,0.00037320,-0.00049590,-0.00017318,-0.00006794,0.00007698,-0.000224
 42,0.00005724,0.00005145,-0.00010111,-0.00014545,0.00002560,-0.0208033
 4,-0.00887396,0.02585995,-0.00368728,-0.00462605,-0.00086095,0.0001601
 0,0.00148929,0.00017095,0.00007655,0.00017659,0.00050061,0.00030081,-0
 .00016534,0.00035748,0.00065049,0.00059955,-0.00097361,0.00008374,-0.0
 0019897,0.00010287,-0.00059655,0.00012481,0.00029746,-0.00059727,-0.00
 329441,-0.00337813,0.00181048,-0.00275495,0.00238112,0.00153079,-0.000
 55192,0.00126233,-0.00320395,0.00352720,-0.00563404,-0.00069546,0.0018
 6014,0.00230579,0.00071764,0.00073621,-0.00015064,0.00002610,-0.000415
 82,0.00005540,0.00034726,-0.00001023,-0.00011506,-0.00028297,0.0002348
 0,0.00036932,-0.00271212,-0.05749044,-0.00387980,0.00817316,0.00929850
 ,-0.01810898,-0.00532888,-0.00188265,0.00761297,0.01777318,-0.01501102
 ,0.01600879,-0.00176354,0.00223316,-0.00232970,-0.03180068,0.02949330,
 -0.02063570,-0.00305893,0.00149606,-0.00226561,0.11930813,0.17200862,-
 0.00049743,-0.00046124,0.00054811,-0.00014791,-0.00005650,-0.00006001,
 -0.00014458,0.00008734,0.00046478,-0.00019638,0.00014192,-0.00017042,0
 .00179722,0.00874816,0.00430555,-0.00123216,-0.00266855,0.00188391,-0.
 00007137,-0.00097639,0.00110146,0.00013681,-0.00024324,0.00007104,-0.0
 0013797,0.00031940,0.00028329,-0.00011638,-0.00021866,-0.00029575,-0.0
 0009087,-0.00000356,0.00009194,0.00028118,-0.00017348,0.00002758,0.000
 16316,0.00048485,-0.00039755,0.00016044,-0.00056753,0.00083408,0.00004
 918,-0.00016172,0.00030591,-0.00004222,-0.00036453,0.00005486,0.000197
 69,0.00022882,0.00020448,-0.00000468,0.00023793,-0.00013345,0.00000945
 ,-0.00004713,0.00009797,0.00004828,-0.00000589,0.00000507,-0.00004600,
 -0.00001428,0.00009401,0.02789106,-0.02700820,-0.17850210,0.01733796,-
 0.00052483,-0.01763232,0.02457541,0.00813705,-0.04074438,0.00225031,-0
 .00169371,0.00113024,-0.00015193,0.00026481,-0.00054448,-0.01399079,-0
 .00593059,-0.00776487,-0.00094743,0.00025766,-0.00033829,-0.04353851,0
 .04402013,0.29461890,-0.00002358,0.00002966,0.00071315,0.00007457,0.00
 019453,-0.00024243,-0.00010128,-0.00008598,-0.00034256,-0.00027477,0.0
 0003391,-0.00006474,-0.00264083,0.00302944,0.00467569,-0.00025845,-0.0
 0121465,-0.00054981,0.00042240,-0.00043639,0.00056399,-0.00016020,0.00
 018038,-0.00025268,-0.00009257,-0.00013229,-0.00038320,-0.00007654,-0.
 00006804,0.00014162,-0.00008499,0.00012767,-0.00010768,0.00042767,-0.0
 0006029,-0.00012263,0.00271118,0.00202590,0.00198518,0.00022194,-0.000
 45605,-0.00143948,-0.00084062,-0.00012173,-0.00072329,0.00437717,-0.00
 755077,0.00670511,0.00107906,-0.00143276,-0.00299920,-0.00101720,-0.00
 093902,0.00089291,0.00002992,0.00049088,-0.00041547,-0.00028601,0.0001
 0381,0.00003978,0.00027221,-0.00024825,-0.00046862,-0.03581526,-0.0363
 8232,0.00062495,0.00322250,0.00116638,-0.00367477,0.00487891,0.0028505
 4,-0.00518644,-0.07571017,0.06633233,-0.05898211,0.00503147,-0.0058728
 2,0.00631335,0.04141798,-0.02246875,0.03737733,0.00796427,-0.00379512,
 0.00428660,-0.11585390,-0.07642440,-0.01354152,0.16110512,0.00012127,-
 0.00000110,0.00064303,0.00002453,0.00010849,-0.00026222,0.00007472,-0.
 00008812,-0.00040482,-0.00017988,0.00004738,-0.00000834,-0.00207130,0.
 00250412,0.00520928,-0.00117973,-0.00127160,-0.00025068,0.00018508,0.0
 0046551,-0.00019790,-0.00012773,0.00006070,0.00008155,-0.00000566,0.00
 010014,0.00009814,-0.00048987,-0.00015527,-0.00010639,0.00006533,0.000
 15825,0.00004880,0.00025165,-0.00017792,0.00016679,0.00098276,0.001106
 38,0.00056026,-0.00016561,-0.00098818,-0.00117220,-0.00054542,0.000196
 14,-0.00044612,0.00159258,-0.00049209,0.00394058,0.00042275,-0.0013753
 3,-0.00137894,-0.00025818,-0.00042436,0.00001992,-0.00002211,0.0002011
 7,-0.00007046,-0.00013100,0.00001304,0.00010759,0.00014299,-0.00008171
 ,-0.00023560,-0.02065463,-0.02171732,0.00566038,0.00101127,0.00202636,
 -0.00116065,0.00085518,0.00131155,-0.00399125,0.02971890,-0.01980400,0
 .02069401,0.00030426,0.00115137,-0.00073489,0.00155339,-0.06205440,0.0
 0577624,-0.00020925,-0.00008700,0.00015265,-0.09239046,-0.12821951,-0.
 02180805,0.08112418,0.22748729,0.00003894,0.00093555,-0.00043470,0.000
 34305,0.00008998,0.00039705,0.00020564,-0.00008478,0.00043670,-0.00018
 389,0.00000085,0.00005302,0.00363343,-0.00029536,-0.00423232,0.0009942
 2,0.00130353,0.00004967,0.00045109,-0.00064106,-0.00041856,-0.00026321
 ,0.00019542,0.00012743,-0.00012797,0.00019027,0.00031743,0.00008320,-0
 .00015619,-0.00011304,-0.00019909,0.00005117,0.00009781,0.00024842,-0.
 00004496,0.00012849,0.00087505,0.00122334,0.00022002,0.00032623,0.0000
 2718,-0.00008694,-0.00028713,-0.00017851,-0.00009619,0.00125629,-0.003
 02537,0.00240205,0.00050188,-0.00042952,-0.00115690,-0.00041372,-0.000
 12434,-0.00002705,-0.00036308,0.00025309,0.00032420,-0.00003660,-0.000
 00975,0.00010212,0.00011621,-0.00017620,-0.00009850,0.01619915,0.02535
 174,0.01303973,-0.00034150,0.00049862,0.00031298,0.00311435,0.00158084
 ,0.00307127,-0.04200271,0.03589452,-0.02949639,0.00229426,-0.00327800,
 0.00305897,0.02693816,-0.00371916,0.00597334,0.00299771,-0.00187108,0.
 00311063,-0.04157538,-0.04263109,-0.05953955,0.02517698,-0.01093072,0.
 06247721\\0.00000068,0.00000022,-0.00000259,0.00000064,0.,-0.00000278,
 0.00000155,-0.00000050,-0.00000280,-0.00000026,0.00000042,-0.00000438,
 0.00000176,0.00000045,0.00000194,-0.00000179,0.00000295,-0.00000206,-0
 .00000292,0.00000126,-0.00000378,-0.00000120,0.00000107,0.00000152,0.0
 0000013,-0.00000224,0.00000045,-0.00000073,0.00000250,0.00000270,-0.00
 000126,0.00000087,0.00000247,-0.00000150,0.00000384,-0.00000028,0.0000
 0155,-0.00000192,0.00000416,0.00000096,-0.00000274,-0.00000125,0.00000
 045,-0.00000189,0.00000375,-0.00000083,-0.00000268,0.00000479,0.000000
 12,0.00000054,0.00000337,0.00000029,-0.00000161,0.00000291,0.00000192,
 -0.00000184,0.00000232,0.00000084,-0.00000262,0.00000317,0.00000033,-0
 .00000259,0.00000375,0.00000074,0.00000062,-0.00000326,0.00000017,0.00
 000145,-0.00000398,-0.00000040,0.00000104,-0.00000207,0.00000091,0.000
 00097,-0.00000170,0.00000068,-0.00000035,0.00000168,0.00000560,-0.0000
 0325,0.00000340,-0.00000201,0.00000137,-0.00000003,-0.00000012,0.00000
 006,-0.00000327,-0.00000628,0.00000460,-0.00000814\\\@
 Job cpu time:  0 days 12 hours 42 minutes  2.7 seconds.
 File lengths (MBytes):  RWF=  77178 Int=      0 D2E=      0 Chk=     26 Scr=      1
 Normal termination of Gaussian 09 at Wed Feb 26 02:13:19 2014.
