 Entering Gaussian System, Link 0=g09
 Initial command:
 /usr/caen/gaussian-09revc/g09/l1.exe /scratch/avioli_flux/hetanjin/scratch/Gau-19937.inp -scrdir=/scratch/avioli_flux/hetanjin/scratch/
 Entering Link 1 = /usr/caen/gaussian-09revc/g09/l1.exe PID=     19938.
  
 Copyright (c) 1988,1990,1992,1993,1995,1998,2003,2009,2011,
            Gaussian, Inc.  All Rights Reserved.
  
 This is part of the Gaussian(R) 09 program.  It is based on
 the Gaussian(R) 03 system (copyright 2003, Gaussian, Inc.),
 the Gaussian(R) 98 system (copyright 1998, Gaussian, Inc.),
 the Gaussian(R) 94 system (copyright 1995, Gaussian, Inc.),
 the Gaussian 92(TM) system (copyright 1992, Gaussian, Inc.),
 the Gaussian 90(TM) system (copyright 1990, Gaussian, Inc.),
 the Gaussian 88(TM) system (copyright 1988, Gaussian, Inc.),
 the Gaussian 86(TM) system (copyright 1986, Carnegie Mellon
 University), and the Gaussian 82(TM) system (copyright 1983,
 Carnegie Mellon University). Gaussian is a federally registered
 trademark of Gaussian, Inc.
  
 This software contains proprietary and confidential information,
 including trade secrets, belonging to Gaussian, Inc.
  
 This software is provided under written license and may be
 used, copied, transmitted, or stored only in accord with that
 written license.
  
 The following legend is applicable only to US Government
 contracts under FAR:
  
                    RESTRICTED RIGHTS LEGEND
  
 Use, reproduction and disclosure by the US Government is
 subject to restrictions as set forth in subparagraphs (a)
 and (c) of the Commercial Computer Software - Restricted
 Rights clause in FAR 52.227-19.
  
 Gaussian, Inc.
 340 Quinnipiac St., Bldg. 40, Wallingford CT 06492
  
  
 ---------------------------------------------------------------
 Warning -- This program may not be used in any manner that
 competes with the business of Gaussian, Inc. or will provide
 assistance to any competitor of Gaussian, Inc.  The licensee
 of this program is prohibited from giving any competitor of
 Gaussian, Inc. access to this program.  By using this program,
 the user acknowledges that Gaussian, Inc. is engaged in the
 business of creating and licensing software in the field of
 computational chemistry and represents and warrants to the
 licensee that it is not a competitor of Gaussian, Inc. and that
 it will not use this program in any manner prohibited above.
 ---------------------------------------------------------------
  

 Cite this work as:
 Gaussian 09, Revision C.01,
 M. J. Frisch, G. W. Trucks, H. B. Schlegel, G. E. Scuseria, 
 M. A. Robb, J. R. Cheeseman, G. Scalmani, V. Barone, B. Mennucci, 
 G. A. Petersson, H. Nakatsuji, M. Caricato, X. Li, H. P. Hratchian, 
 A. F. Izmaylov, J. Bloino, G. Zheng, J. L. Sonnenberg, M. Hada, 
 M. Ehara, K. Toyota, R. Fukuda, J. Hasegawa, M. Ishida, T. Nakajima, 
 Y. Honda, O. Kitao, H. Nakai, T. Vreven, J. A. Montgomery, Jr., 
 J. E. Peralta, F. Ogliaro, M. Bearpark, J. J. Heyd, E. Brothers, 
 K. N. Kudin, V. N. Staroverov, T. Keith, R. Kobayashi, J. Normand, 
 K. Raghavachari, A. Rendell, J. C. Burant, S. S. Iyengar, J. Tomasi, 
 M. Cossi, N. Rega, J. M. Millam, M. Klene, J. E. Knox, J. B. Cross, 
 V. Bakken, C. Adamo, J. Jaramillo, R. Gomperts, R. E. Stratmann, 
 O. Yazyev, A. J. Austin, R. Cammi, C. Pomelli, J. W. Ochterski, 
 R. L. Martin, K. Morokuma, V. G. Zakrzewski, G. A. Voth, 
 P. Salvador, J. J. Dannenberg, S. Dapprich, A. D. Daniels, 
 O. Farkas, J. B. Foresman, J. V. Ortiz, J. Cioslowski, 
 and D. J. Fox, Gaussian, Inc., Wallingford CT, 2010.
 
 ******************************************
 Gaussian 09:  EM64L-G09RevC.01 23-Sep-2011
                17-Feb-2014 
 ******************************************
 %mem=30GB
 %nprocshared=8
 Will use up to    8 processors via shared memory.
 %chk=TS_1_1g.chk
 -------------------------------
 #p cbs-qb3 opt=(TS,calcfc) freq
 -------------------------------
 1/5=1,10=4,14=-1,18=20,26=3,38=1/1,3;
 2/9=110,12=2,17=6,18=5,40=1/2;
 3/5=4,6=6,7=700,11=2,16=1,25=1,30=1,71=2,74=-5/1,2,3;
 4//1;
 5/5=2,38=5/2;
 8/6=4,10=90,11=11/1;
 11/6=1,8=1,9=11,15=111,16=1/1,2,10;
 10/6=1,7=6,13=1/2;
 6/7=2,8=2,9=2,10=2,28=1/1;
 7/10=1,18=20,25=1/1,2,3,16;
 1/5=1,10=4,14=-1,18=20/3(2);
 2/9=110/2;
 99//99;
 2/9=110/2;
 3/5=4,6=6,7=700,11=2,16=1,25=1,30=1,71=1,74=-5/1,2,3;
 4/5=5,16=3/1;
 5/5=2,38=5/2;
 7//1,2,3,16;
 1/5=1,14=-1,18=20/3(-5);
 2/9=110/2;
 6/7=2,8=2,9=2,10=2,19=2,28=1/1;
 99/9=1/99;
 Leave Link    1 at Mon Feb 17 01:58:39 2014, MaxMem= 4026531840 cpu:       0.5
 (Enter /usr/caen/gaussian-09revc/g09/l101.exe)
 ------------------------------------
 TS_1_1g using cbs-qb3 to cal. energy
 ------------------------------------
 Charge =  0 Multiplicity = 2
 Symbolic Z-Matrix:
 C                     3.59491  -0.53904   0.39813 
 H                     3.54277  -0.43054   1.48673 
 H                     3.9176   -1.56047   0.18044 
 H                     4.37111   0.14066   0.03263 
 C                     2.23258  -0.24819  -0.25051 
 H                     2.32744  -0.42802  -1.32895 
 C                     1.12717  -1.1733    0.30007 
 H                     1.57856  -2.12213   0.60887 
 H                     0.72109  -0.72606   1.21334 
 C                    -0.01598  -1.47412  -0.70001 
 H                     0.18158  -2.43319  -1.18885 
 H                    -0.01569  -0.72616  -1.49743 
 C                    -1.41151  -1.5095   -0.04622 
 H                    -1.34066  -1.99657   0.93246 
 H                    -2.0825   -2.13828  -0.65055 
 C                    -2.06726  -0.13969   0.0969 
 H                    -1.06716   0.75429   0.30162 
 C                    -2.67117   0.40769  -1.18247 
 H                    -3.57406  -0.16346  -1.44454 
 H                    -2.96073   1.45527  -1.07152 
 H                    -1.98013   0.33733  -2.02583 
 C                     1.91818   1.24     -0.04358 
 H                     1.974     1.50511   1.01641 
 H                     2.63953   1.85521  -0.59183 
 C                    -2.93441   0.04447   1.3246 
 H                    -3.28676   1.07521   1.41792 
 H                    -3.82315  -0.60152   1.26339 
 H                    -2.4004   -0.22201   2.2406 
 O                     0.64223   1.68354  -0.53776 
 O                    -0.31191   1.66337   0.50321 
 
 NAtoms=     30 NQM=        0 NQMF=       0 NMMI=     30 NMMIF=      0
                NMic=       0 NMicF=      0.
                    Isotopes and Nuclear Properties:
 (Nuclear quadrupole moments (NQMom) in fm**2, nuclear magnetic moments (NMagM)
  in nuclear magnetons)

  Atom         1           2           3           4           5           6           7           8           9          10
 IAtWgt=          12           1           1           1          12           1          12           1           1          12
 AtmWgt=  12.0000000   1.0078250   1.0078250   1.0078250  12.0000000   1.0078250  12.0000000   1.0078250   1.0078250  12.0000000
 NucSpn=           0           1           1           1           0           1           0           1           1           0
 AtZEff=   0.0000000   0.0000000   0.0000000   0.0000000   0.0000000   0.0000000   0.0000000   0.0000000   0.0000000   0.0000000
 NQMom=    0.0000000   0.0000000   0.0000000   0.0000000   0.0000000   0.0000000   0.0000000   0.0000000   0.0000000   0.0000000
 NMagM=    0.0000000   2.7928460   2.7928460   2.7928460   0.0000000   2.7928460   0.0000000   2.7928460   2.7928460   0.0000000

  Atom        11          12          13          14          15          16          17          18          19          20
 IAtWgt=           1           1          12           1           1          12           1          12           1           1
 AtmWgt=   1.0078250   1.0078250  12.0000000   1.0078250   1.0078250  12.0000000   1.0078250  12.0000000   1.0078250   1.0078250
 NucSpn=           1           1           0           1           1           0           1           0           1           1
 AtZEff=   0.0000000   0.0000000   0.0000000   0.0000000   0.0000000   0.0000000   0.0000000   0.0000000   0.0000000   0.0000000
 NQMom=    0.0000000   0.0000000   0.0000000   0.0000000   0.0000000   0.0000000   0.0000000   0.0000000   0.0000000   0.0000000
 NMagM=    2.7928460   2.7928460   0.0000000   2.7928460   2.7928460   0.0000000   2.7928460   0.0000000   2.7928460   2.7928460

  Atom        21          22          23          24          25          26          27          28          29          30
 IAtWgt=           1          12           1           1          12           1           1           1          16          16
 AtmWgt=   1.0078250  12.0000000   1.0078250   1.0078250  12.0000000   1.0078250   1.0078250   1.0078250  15.9949146  15.9949146
 NucSpn=           1           0           1           1           0           1           1           1           0           0
 AtZEff=   0.0000000   0.0000000   0.0000000   0.0000000   0.0000000   0.0000000   0.0000000   0.0000000   0.0000000   0.0000000
 NQMom=    0.0000000   0.0000000   0.0000000   0.0000000   0.0000000   0.0000000   0.0000000   0.0000000   0.0000000   0.0000000
 NMagM=    2.7928460   0.0000000   2.7928460   2.7928460   0.0000000   2.7928460   2.7928460   2.7928460   0.0000000   0.0000000
 Leave Link  101 at Mon Feb 17 01:58:40 2014, MaxMem= 4026531840 cpu:       2.8
 (Enter /usr/caen/gaussian-09revc/g09/l103.exe)

 GradGradGradGradGradGradGradGradGradGradGradGradGradGradGradGradGradGrad
 Berny optimization.
 Initialization pass.
                           ----------------------------
                           !    Initial Parameters    !
                           ! (Angstroms and Degrees)  !
 --------------------------                            --------------------------
 ! Name  Definition              Value          Derivative Info.                !
 --------------------------------------------------------------------------------
 ! R1    R(1,2)                  1.0952         calculate D2E/DX2 analytically  !
 ! R2    R(1,3)                  1.0931         calculate D2E/DX2 analytically  !
 ! R3    R(1,4)                  1.0946         calculate D2E/DX2 analytically  !
 ! R4    R(1,5)                  1.5366         calculate D2E/DX2 analytically  !
 ! R5    R(5,6)                  1.0974         calculate D2E/DX2 analytically  !
 ! R6    R(5,7)                  1.543          calculate D2E/DX2 analytically  !
 ! R7    R(5,22)                 1.5351         calculate D2E/DX2 analytically  !
 ! R8    R(7,8)                  1.0952         calculate D2E/DX2 analytically  !
 ! R9    R(7,9)                  1.095          calculate D2E/DX2 analytically  !
 ! R10   R(7,10)                 1.5484         calculate D2E/DX2 analytically  !
 ! R11   R(10,11)                1.0944         calculate D2E/DX2 analytically  !
 ! R12   R(10,12)                1.0933         calculate D2E/DX2 analytically  !
 ! R13   R(10,13)                1.5415         calculate D2E/DX2 analytically  !
 ! R14   R(13,14)                1.0955         calculate D2E/DX2 analytically  !
 ! R15   R(13,15)                1.1004         calculate D2E/DX2 analytically  !
 ! R16   R(13,16)                1.5254         calculate D2E/DX2 analytically  !
 ! R17   R(16,17)                1.357          calculate D2E/DX2 analytically  !
 ! R18   R(16,18)                1.5169         calculate D2E/DX2 analytically  !
 ! R19   R(16,25)                1.5143         calculate D2E/DX2 analytically  !
 ! R20   R(17,30)                1.1989         calculate D2E/DX2 analytically  !
 ! R21   R(18,19)                1.1001         calculate D2E/DX2 analytically  !
 ! R22   R(18,20)                1.0925         calculate D2E/DX2 analytically  !
 ! R23   R(18,21)                1.0926         calculate D2E/DX2 analytically  !
 ! R24   R(22,23)                1.0941         calculate D2E/DX2 analytically  !
 ! R25   R(22,24)                1.0952         calculate D2E/DX2 analytically  !
 ! R26   R(22,29)                1.4384         calculate D2E/DX2 analytically  !
 ! R27   R(25,26)                1.0933         calculate D2E/DX2 analytically  !
 ! R28   R(25,27)                1.1004         calculate D2E/DX2 analytically  !
 ! R29   R(25,28)                1.0933         calculate D2E/DX2 analytically  !
 ! R30   R(29,30)                1.4122         calculate D2E/DX2 analytically  !
 ! A1    A(2,1,3)              107.7325         calculate D2E/DX2 analytically  !
 ! A2    A(2,1,4)              107.7065         calculate D2E/DX2 analytically  !
 ! A3    A(2,1,5)              111.0144         calculate D2E/DX2 analytically  !
 ! A4    A(3,1,4)              107.7231         calculate D2E/DX2 analytically  !
 ! A5    A(3,1,5)              110.7643         calculate D2E/DX2 analytically  !
 ! A6    A(4,1,5)              111.7286         calculate D2E/DX2 analytically  !
 ! A7    A(1,5,6)              107.8882         calculate D2E/DX2 analytically  !
 ! A8    A(1,5,7)              111.7791         calculate D2E/DX2 analytically  !
 ! A9    A(1,5,22)             107.9491         calculate D2E/DX2 analytically  !
 ! A10   A(6,5,7)              108.3201         calculate D2E/DX2 analytically  !
 ! A11   A(6,5,22)             108.0012         calculate D2E/DX2 analytically  !
 ! A12   A(7,5,22)             112.7318         calculate D2E/DX2 analytically  !
 ! A13   A(5,7,8)              108.9518         calculate D2E/DX2 analytically  !
 ! A14   A(5,7,9)              108.5663         calculate D2E/DX2 analytically  !
 ! A15   A(5,7,10)             114.5144         calculate D2E/DX2 analytically  !
 ! A16   A(8,7,9)              105.7563         calculate D2E/DX2 analytically  !
 ! A17   A(8,7,10)             108.5481         calculate D2E/DX2 analytically  !
 ! A18   A(9,7,10)             110.1367         calculate D2E/DX2 analytically  !
 ! A19   A(7,10,11)            108.9943         calculate D2E/DX2 analytically  !
 ! A20   A(7,10,12)            109.7539         calculate D2E/DX2 analytically  !
 ! A21   A(7,10,13)            113.5093         calculate D2E/DX2 analytically  !
 ! A22   A(11,10,12)           105.8837         calculate D2E/DX2 analytically  !
 ! A23   A(11,10,13)           109.4354         calculate D2E/DX2 analytically  !
 ! A24   A(12,10,13)           108.9831         calculate D2E/DX2 analytically  !
 ! A25   A(10,13,14)           109.3032         calculate D2E/DX2 analytically  !
 ! A26   A(10,13,15)           109.4039         calculate D2E/DX2 analytically  !
 ! A27   A(10,13,16)           114.102          calculate D2E/DX2 analytically  !
 ! A28   A(14,13,15)           106.0224         calculate D2E/DX2 analytically  !
 ! A29   A(14,13,16)           110.0755         calculate D2E/DX2 analytically  !
 ! A30   A(15,13,16)           107.6095         calculate D2E/DX2 analytically  !
 ! A31   A(13,16,17)           106.7942         calculate D2E/DX2 analytically  !
 ! A32   A(13,16,18)           114.5857         calculate D2E/DX2 analytically  !
 ! A33   A(13,16,25)           115.5594         calculate D2E/DX2 analytically  !
 ! A34   A(17,16,18)           100.5402         calculate D2E/DX2 analytically  !
 ! A35   A(17,16,25)           102.6859         calculate D2E/DX2 analytically  !
 ! A36   A(18,16,25)           114.3244         calculate D2E/DX2 analytically  !
 ! A37   A(16,18,19)           109.8969         calculate D2E/DX2 analytically  !
 ! A38   A(16,18,20)           111.4617         calculate D2E/DX2 analytically  !
 ! A39   A(16,18,21)           112.0844         calculate D2E/DX2 analytically  !
 ! A40   A(19,18,20)           107.7283         calculate D2E/DX2 analytically  !
 ! A41   A(19,18,21)           107.5654         calculate D2E/DX2 analytically  !
 ! A42   A(20,18,21)           107.9248         calculate D2E/DX2 analytically  !
 ! A43   A(5,22,23)            110.7981         calculate D2E/DX2 analytically  !
 ! A44   A(5,22,24)            110.0113         calculate D2E/DX2 analytically  !
 ! A45   A(5,22,29)            115.7411         calculate D2E/DX2 analytically  !
 ! A46   A(23,22,24)           108.3789         calculate D2E/DX2 analytically  !
 ! A47   A(23,22,29)           107.662          calculate D2E/DX2 analytically  !
 ! A48   A(24,22,29)           103.8316         calculate D2E/DX2 analytically  !
 ! A49   A(16,25,26)           111.6181         calculate D2E/DX2 analytically  !
 ! A50   A(16,25,27)           110.2427         calculate D2E/DX2 analytically  !
 ! A51   A(16,25,28)           111.7113         calculate D2E/DX2 analytically  !
 ! A52   A(26,25,27)           107.3322         calculate D2E/DX2 analytically  !
 ! A53   A(26,25,28)           108.4036         calculate D2E/DX2 analytically  !
 ! A54   A(27,25,28)           107.3377         calculate D2E/DX2 analytically  !
 ! A55   A(22,29,30)           109.9792         calculate D2E/DX2 analytically  !
 ! A56   A(17,30,29)           108.2092         calculate D2E/DX2 analytically  !
 ! A57   L(16,17,30,6,-1)      187.7821         calculate D2E/DX2 analytically  !
 ! A58   L(16,17,30,6,-2)      176.5638         calculate D2E/DX2 analytically  !
 ! D1    D(2,1,5,6)           -176.7505         calculate D2E/DX2 analytically  !
 ! D2    D(2,1,5,7)            -57.7616         calculate D2E/DX2 analytically  !
 ! D3    D(2,1,5,22)            66.7683         calculate D2E/DX2 analytically  !
 ! D4    D(3,1,5,6)            -57.1078         calculate D2E/DX2 analytically  !
 ! D5    D(3,1,5,7)             61.8811         calculate D2E/DX2 analytically  !
 ! D6    D(3,1,5,22)          -173.5889         calculate D2E/DX2 analytically  !
 ! D7    D(4,1,5,6)             62.996          calculate D2E/DX2 analytically  !
 ! D8    D(4,1,5,7)           -178.0151         calculate D2E/DX2 analytically  !
 ! D9    D(4,1,5,22)           -53.4851         calculate D2E/DX2 analytically  !
 ! D10   D(1,5,7,8)            -28.898          calculate D2E/DX2 analytically  !
 ! D11   D(1,5,7,9)             85.8237         calculate D2E/DX2 analytically  !
 ! D12   D(1,5,7,10)          -150.6504         calculate D2E/DX2 analytically  !
 ! D13   D(6,5,7,8)             89.8347         calculate D2E/DX2 analytically  !
 ! D14   D(6,5,7,9)           -155.4437         calculate D2E/DX2 analytically  !
 ! D15   D(6,5,7,10)           -31.9177         calculate D2E/DX2 analytically  !
 ! D16   D(22,5,7,8)          -150.7146         calculate D2E/DX2 analytically  !
 ! D17   D(22,5,7,9)           -35.993          calculate D2E/DX2 analytically  !
 ! D18   D(22,5,7,10)           87.533          calculate D2E/DX2 analytically  !
 ! D19   D(1,5,22,23)          -54.3956         calculate D2E/DX2 analytically  !
 ! D20   D(1,5,22,24)           65.4246         calculate D2E/DX2 analytically  !
 ! D21   D(1,5,22,29)         -177.3136         calculate D2E/DX2 analytically  !
 ! D22   D(6,5,22,23)         -170.8031         calculate D2E/DX2 analytically  !
 ! D23   D(6,5,22,24)          -50.9829         calculate D2E/DX2 analytically  !
 ! D24   D(6,5,22,29)           66.2789         calculate D2E/DX2 analytically  !
 ! D25   D(7,5,22,23)           69.5616         calculate D2E/DX2 analytically  !
 ! D26   D(7,5,22,24)         -170.6182         calculate D2E/DX2 analytically  !
 ! D27   D(7,5,22,29)          -53.3564         calculate D2E/DX2 analytically  !
 ! D28   D(5,7,10,11)           96.7858         calculate D2E/DX2 analytically  !
 ! D29   D(5,7,10,12)          -18.7551         calculate D2E/DX2 analytically  !
 ! D30   D(5,7,10,13)         -140.9724         calculate D2E/DX2 analytically  !
 ! D31   D(8,7,10,11)          -25.187          calculate D2E/DX2 analytically  !
 ! D32   D(8,7,10,12)         -140.728          calculate D2E/DX2 analytically  !
 ! D33   D(8,7,10,13)           97.0548         calculate D2E/DX2 analytically  !
 ! D34   D(9,7,10,11)         -140.5342         calculate D2E/DX2 analytically  !
 ! D35   D(9,7,10,12)          103.9248         calculate D2E/DX2 analytically  !
 ! D36   D(9,7,10,13)          -18.2924         calculate D2E/DX2 analytically  !
 ! D37   D(7,10,13,14)         -39.2439         calculate D2E/DX2 analytically  !
 ! D38   D(7,10,13,15)        -154.9298         calculate D2E/DX2 analytically  !
 ! D39   D(7,10,13,16)          84.476          calculate D2E/DX2 analytically  !
 ! D40   D(11,10,13,14)         82.7531         calculate D2E/DX2 analytically  !
 ! D41   D(11,10,13,15)        -32.9328         calculate D2E/DX2 analytically  !
 ! D42   D(11,10,13,16)       -153.527          calculate D2E/DX2 analytically  !
 ! D43   D(12,10,13,14)       -161.8876         calculate D2E/DX2 analytically  !
 ! D44   D(12,10,13,15)         82.4265         calculate D2E/DX2 analytically  !
 ! D45   D(12,10,13,16)        -38.1677         calculate D2E/DX2 analytically  !
 ! D46   D(10,13,16,17)        -32.5824         calculate D2E/DX2 analytically  !
 ! D47   D(10,13,16,18)         77.7955         calculate D2E/DX2 analytically  !
 ! D48   D(10,13,16,25)       -146.0739         calculate D2E/DX2 analytically  !
 ! D49   D(14,13,16,17)         90.7201         calculate D2E/DX2 analytically  !
 ! D50   D(14,13,16,18)       -158.9019         calculate D2E/DX2 analytically  !
 ! D51   D(14,13,16,25)        -22.7714         calculate D2E/DX2 analytically  !
 ! D52   D(15,13,16,17)       -154.1727         calculate D2E/DX2 analytically  !
 ! D53   D(15,13,16,18)        -43.7947         calculate D2E/DX2 analytically  !
 ! D54   D(15,13,16,25)         92.3358         calculate D2E/DX2 analytically  !
 ! D55   D(13,16,30,29)         57.1644         calculate D2E/DX2 analytically  !
 ! D56   D(18,16,30,29)        -63.4307         calculate D2E/DX2 analytically  !
 ! D57   D(25,16,30,29)        179.7019         calculate D2E/DX2 analytically  !
 ! D58   D(13,16,18,19)         71.0729         calculate D2E/DX2 analytically  !
 ! D59   D(13,16,18,20)       -169.57           calculate D2E/DX2 analytically  !
 ! D60   D(13,16,18,21)        -48.4793         calculate D2E/DX2 analytically  !
 ! D61   D(17,16,18,19)       -174.8274         calculate D2E/DX2 analytically  !
 ! D62   D(17,16,18,20)        -55.4704         calculate D2E/DX2 analytically  !
 ! D63   D(17,16,18,21)         65.6203         calculate D2E/DX2 analytically  !
 ! D64   D(25,16,18,19)        -65.6046         calculate D2E/DX2 analytically  !
 ! D65   D(25,16,18,20)         53.7525         calculate D2E/DX2 analytically  !
 ! D66   D(25,16,18,21)        174.8432         calculate D2E/DX2 analytically  !
 ! D67   D(13,16,25,26)        174.087          calculate D2E/DX2 analytically  !
 ! D68   D(13,16,25,27)        -66.7242         calculate D2E/DX2 analytically  !
 ! D69   D(13,16,25,28)         52.5317         calculate D2E/DX2 analytically  !
 ! D70   D(17,16,25,26)         58.2415         calculate D2E/DX2 analytically  !
 ! D71   D(17,16,25,27)        177.4303         calculate D2E/DX2 analytically  !
 ! D72   D(17,16,25,28)        -63.3138         calculate D2E/DX2 analytically  !
 ! D73   D(18,16,25,26)        -49.6684         calculate D2E/DX2 analytically  !
 ! D74   D(18,16,25,27)         69.5204         calculate D2E/DX2 analytically  !
 ! D75   D(18,16,25,28)       -171.2237         calculate D2E/DX2 analytically  !
 ! D76   D(5,22,29,30)          95.1173         calculate D2E/DX2 analytically  !
 ! D77   D(23,22,29,30)        -29.439          calculate D2E/DX2 analytically  !
 ! D78   D(24,22,29,30)       -144.2215         calculate D2E/DX2 analytically  !
 ! D79   D(22,29,30,17)       -108.0066         calculate D2E/DX2 analytically  !
 --------------------------------------------------------------------------------
 Trust Radius=3.00D-01 FncErr=1.00D-07 GrdErr=1.00D-06
 Number of steps in this run=    177 maximum allowed number of steps=    180.
 Search for a saddle point of order  1.
 GradGradGradGradGradGradGradGradGradGradGradGradGradGradGradGradGradGrad

 Leave Link  103 at Mon Feb 17 01:58:40 2014, MaxMem= 4026531840 cpu:       0.2
 (Enter /usr/caen/gaussian-09revc/g09/l202.exe)
                          Input orientation:                          
 ---------------------------------------------------------------------
 Center     Atomic      Atomic             Coordinates (Angstroms)
 Number     Number       Type             X           Y           Z
 ---------------------------------------------------------------------
      1          6           0        3.594908   -0.539038    0.398132
      2          1           0        3.542768   -0.430536    1.486734
      3          1           0        3.917599   -1.560467    0.180440
      4          1           0        4.371108    0.140655    0.032634
      5          6           0        2.232575   -0.248188   -0.250512
      6          1           0        2.327437   -0.428015   -1.328948
      7          6           0        1.127169   -1.173298    0.300067
      8          1           0        1.578563   -2.122128    0.608870
      9          1           0        0.721088   -0.726055    1.213342
     10          6           0       -0.015980   -1.474118   -0.700013
     11          1           0        0.181576   -2.433194   -1.188852
     12          1           0       -0.015689   -0.726158   -1.497432
     13          6           0       -1.411509   -1.509496   -0.046215
     14          1           0       -1.340663   -1.996574    0.932455
     15          1           0       -2.082500   -2.138276   -0.650545
     16          6           0       -2.067257   -0.139693    0.096900
     17          1           0       -1.067157    0.754288    0.301624
     18          6           0       -2.671169    0.407693   -1.182468
     19          1           0       -3.574064   -0.163459   -1.444539
     20          1           0       -2.960732    1.455272   -1.071524
     21          1           0       -1.980130    0.337334   -2.025834
     22          6           0        1.918179    1.240003   -0.043576
     23          1           0        1.973996    1.505108    1.016411
     24          1           0        2.639526    1.855206   -0.591832
     25          6           0       -2.934405    0.044474    1.324598
     26          1           0       -3.286761    1.075210    1.417917
     27          1           0       -3.823148   -0.601522    1.263392
     28          1           0       -2.400397   -0.222009    2.240602
     29          8           0        0.642226    1.683537   -0.537756
     30          8           0       -0.311912    1.663374    0.503207
 ---------------------------------------------------------------------
                    Distance matrix (angstroms):
                    1          2          3          4          5
     1  C    0.000000
     2  H    1.095238   0.000000
     3  H    1.093086   1.767384   0.000000
     4  H    1.094558   1.768280   1.766729   0.000000
     5  C    1.536647   2.183548   2.178784   2.191961   0.000000
     6  H    2.145137   3.066774   2.467654   2.520691   1.097434
     7  C    2.549831   2.791951   2.819700   3.510147   1.543013
     8  H    2.572204   2.736828   2.443380   3.640129   2.162850
     9  H    2.993056   2.850255   3.461331   3.932926   2.157735
    10  C    3.888291   4.305301   4.031835   4.731892   2.600184
    11  H    4.213927   4.739938   4.073632   5.066449   3.140275
    12  H    4.082228   4.653521   4.356843   4.726146   2.614949
    13  C    5.118930   5.297070   5.334169   6.013973   3.861604
    14  H    5.173951   5.158255   5.329637   6.164556   4.150216
    15  H    5.990847   6.255236   6.084865   6.878177   4.727825
    16  C    5.684218   5.786934   6.151754   6.444786   4.315208
    17  H    4.839097   4.905069   5.497324   5.479382   3.492570
    18  C    6.531333   6.814711   7.010209   7.151325   5.034424
    19  H    7.411522   7.701493   7.792124   8.087044   5.928738
    20  H    7.008108   7.238540   7.614035   7.530157   5.526868
    21  H    6.142043   6.590156   6.576663   6.679386   4.608849
    22  C    2.484253   2.787802   3.448260   2.689096   1.535050
    23  H    2.681074   2.535541   3.724807   2.928429   2.178532
    24  H    2.761374   3.218835   3.727827   2.515555   2.169418
    25  C    6.620480   6.496591   7.129859   7.419497   5.409649
    26  H    7.141647   6.993888   7.770518   7.838071   5.915920
    27  H    7.468610   7.371285   7.874740   8.319340   6.252082
    28  H    6.280039   5.994415   6.778850   7.131615   5.260301
    29  O    3.812356   4.120802   4.665558   4.075585   2.518587
    30  O    4.486079   4.495591   5.327860   4.946796   3.270562
                    6          7          8          9         10
     6  H    0.000000
     7  C    2.156335   0.000000
     8  H    2.680666   1.095169   0.000000
     9  H    3.021990   1.094988   1.746330   0.000000
    10  C    2.642252   1.548368   2.162327   2.182612   0.000000
    11  H    2.940253   2.167571   2.297855   2.995986   1.094449
    12  H    2.368019   2.176479   2.987788   2.809117   1.093308
    13  C    4.098136   2.584149   3.121696   2.597736   1.541494
    14  H    4.585769   2.677292   2.939788   2.438018   2.166263
    15  H    4.778365   3.483794   3.871662   3.650828   2.171188
    16  C    4.629202   3.363625   4.181407   3.060250   2.573616
    17  H    3.947135   2.920729   3.920205   2.494086   2.659707
    18  C    5.070101   4.373193   5.260143   4.304962   3.289985
    19  H    5.908559   5.115175   5.882384   5.082241   3.864209
    20  H    5.619410   5.049909   6.018863   4.851247   4.170241
    21  H    4.430185   4.164989   5.065068   4.349671   2.982791
    22  C    2.145217   2.562774   3.441649   2.622643   3.396812
    23  H    3.059836   2.898987   3.671416   2.566447   3.972644
    24  H    2.419471   3.500649   4.287950   3.688084   4.260025
    25  C    5.911982   4.362226   5.057006   3.737475   3.862949
    26  H    6.428388   5.078204   5.877832   4.398779   4.656470
    27  H    6.676828   5.075486   5.649701   4.546218   4.371603
    28  H    5.927608   4.136949   4.701609   3.324604   3.987535
    29  O    2.815062   3.016392   4.083450   2.979714   3.229605
    30  O    3.833649   3.187307   4.232622   2.698287   3.373303
                   11         12         13         14         15
    11  H    0.000000
    12  H    1.745883   0.000000
    13  C    2.167200   2.160547   0.000000
    14  H    2.647223   3.045302   1.095472   0.000000
    15  H    2.345803   2.642537   1.100367   1.753936   0.000000
    16  C    3.459849   2.663600   1.525401   2.161966   2.133832
    17  H    3.733751   2.556151   2.316093   2.835488   3.210058
    18  C    4.026020   2.904547   2.559966   3.467513   2.666727
    19  H    4.395669   3.602979   2.905817   3.741456   2.599056
    20  H    5.000803   3.689622   3.498743   4.307644   3.723184
    21  H    3.612387   2.295485   2.766406   3.821978   2.833822
    22  C    4.221353   3.117584   4.318168   4.695542   5.271301
    23  H    4.856560   3.905996   4.656034   4.822426   5.701592
    24  H    4.978788   3.812311   5.294318   5.744699   6.184568
    25  C    4.708036   4.132388   2.571607   2.619097   3.064528
    26  H    5.579741   4.737520   3.512970   3.668627   4.006903
    27  H    5.040470   4.704724   2.890586   2.866779   3.009090
    28  H    4.828776   4.462499   2.804470   2.446092   3.483083
    29  O    4.193280   2.675904   3.828172   4.431319   4.695009
    30  O    4.459648   3.130522   3.402658   3.825938   4.349560
                   16         17         18         19         20
    16  C    0.000000
    17  H    1.356950   0.000000
    18  C    1.516945   2.212580   0.000000
    19  H    2.155706   3.189973   1.100052   0.000000
    20  H    2.169660   2.441831   1.092510   1.770764   0.000000
    21  H    2.177417   2.534646   1.092589   1.768989   1.766939
    22  C    4.219833   3.044226   4.801243   5.839275   4.990670
    23  H    4.458991   3.212983   5.255183   6.294550   5.358498
    24  H    5.158273   3.968600   5.536030   6.588689   5.634975
    25  C    1.514300   2.244310   2.546881   2.849653   2.780727
    26  H    2.169854   2.505143   2.754366   3.132171   2.539303
    27  H    2.158041   3.218494   2.885793   2.754421   3.228931
    28  H    2.170994   2.547611   3.491024   3.867969   3.754654
    29  O    3.326899   2.118974   3.608603   4.691562   3.649427
    30  O    2.548994   1.198945   3.159799   4.215764   3.088581
                   21         22         23         24         25
    21  H    0.000000
    22  C    4.465531   0.000000
    23  H    5.123872   1.094061   0.000000
    24  H    5.069667   1.095172   1.775372   0.000000
    25  C    3.495969   5.181579   5.130383   6.166049   0.000000
    26  H    3.756483   5.408745   5.293542   6.306216   1.093289
    27  H    3.885508   6.169458   6.172987   7.158458   1.100419
    28  H    4.323421   5.099514   4.859721   6.143153   1.093271
    29  O    3.302028   1.438399   2.054479   2.005393   4.352836
    30  O    3.307171   2.334849   2.348149   3.153870   3.189512
                   26         27         28         29         30
    26  H    0.000000
    27  H    1.767207   0.000000
    28  H    1.773479   1.767255   0.000000
    29  O    4.430763   5.329652   4.539596   0.000000
    30  O    3.167390   4.246930   3.306808   1.412229   0.000000
 Stoichiometry    C9H19O2(2)
 Framework group  C1[X(C9H19O2)]
 Deg. of freedom    84
 Full point group                 C1      NOp   1
 Largest Abelian subgroup         C1      NOp   1
 Largest concise Abelian subgroup C1      NOp   1
                         Standard orientation:                         
 ---------------------------------------------------------------------
 Center     Atomic      Atomic             Coordinates (Angstroms)
 Number     Number       Type             X           Y           Z
 ---------------------------------------------------------------------
      1          6           0        3.594908   -0.539038    0.398132
      2          1           0        3.542768   -0.430536    1.486734
      3          1           0        3.917599   -1.560467    0.180440
      4          1           0        4.371108    0.140655    0.032634
      5          6           0        2.232575   -0.248188   -0.250512
      6          1           0        2.327437   -0.428015   -1.328948
      7          6           0        1.127169   -1.173298    0.300067
      8          1           0        1.578563   -2.122128    0.608870
      9          1           0        0.721088   -0.726055    1.213342
     10          6           0       -0.015980   -1.474118   -0.700013
     11          1           0        0.181576   -2.433194   -1.188852
     12          1           0       -0.015689   -0.726158   -1.497432
     13          6           0       -1.411509   -1.509496   -0.046215
     14          1           0       -1.340663   -1.996574    0.932455
     15          1           0       -2.082500   -2.138276   -0.650545
     16          6           0       -2.067257   -0.139693    0.096900
     17          1           0       -1.067157    0.754288    0.301624
     18          6           0       -2.671169    0.407693   -1.182468
     19          1           0       -3.574064   -0.163459   -1.444539
     20          1           0       -2.960732    1.455272   -1.071524
     21          1           0       -1.980130    0.337334   -2.025834
     22          6           0        1.918179    1.240003   -0.043576
     23          1           0        1.973996    1.505108    1.016411
     24          1           0        2.639526    1.855206   -0.591832
     25          6           0       -2.934405    0.044474    1.324598
     26          1           0       -3.286761    1.075210    1.417917
     27          1           0       -3.823148   -0.601522    1.263392
     28          1           0       -2.400397   -0.222009    2.240602
     29          8           0        0.642226    1.683537   -0.537756
     30          8           0       -0.311912    1.663374    0.503207
 ---------------------------------------------------------------------
 Rotational constants (GHZ):      1.6726851      0.6626965      0.5644939
 Leave Link  202 at Mon Feb 17 01:58:40 2014, MaxMem= 4026531840 cpu:       0.5
 (Enter /usr/caen/gaussian-09revc/g09/l301.exe)
 Standard basis: 6-311G(2d,d,p) (5D, 7F)
 Ernie: Thresh=  0.10000D-02 Tol=  0.10000D-05 Strict=F.
 There are   312 symmetry adapted basis functions of A   symmetry.
 Integral buffers will be    131072 words long.
 Raffenetti 2 integral format.
 Two-electron integral symmetry is turned on.
   312 basis functions,   504 primitive gaussians,   323 cartesian basis functions
    45 alpha electrons       44 beta electrons
       nuclear repulsion energy       691.2997300454 Hartrees.
 IExCor=  402 DFT=T Ex+Corr=B3LYP ExCW=0 ScaHFX=  0.200000
 ScaDFX=  0.800000  0.720000  1.000000  0.810000 ScalE2=  1.000000  1.000000
 IRadAn=      0 IRanWt=     -1 IRanGd=            0 ICorTp=0
 NAtoms=   30 NActive=   30 NUniq=   30 SFac= 1.00D+00 NAtFMM=   60 NAOKFM=F Big=F
 Leave Link  301 at Mon Feb 17 01:58:41 2014, MaxMem= 4026531840 cpu:       0.6
 (Enter /usr/caen/gaussian-09revc/g09/l302.exe)
 NPDir=0 NMtPBC=     1 NCelOv=     1 NCel=       1 NClECP=     1 NCelD=      1
         NCelK=      1 NCelE2=     1 NClLst=     1 CellRange=     0.0.
 One-electron integrals computed using PRISM.
 NBasis=   312 RedAO= T  NBF=   312
 NBsUse=   312 1.00D-06 NBFU=   312
 Precomputing XC quadrature grid using
 IXCGrd= 2 IRadAn=           0 IRanWt=          -1 IRanGd=           0 AccXCQ= 0.00D+00.
 NRdTot=    1907 NPtTot=      242968 NUsed=      256720 NTot=      256752
 NSgBfM=   323   323   323   323   323 NAtAll=    30    30.
 Leave Link  302 at Mon Feb 17 01:58:43 2014, MaxMem= 4026531840 cpu:       8.0
 (Enter /usr/caen/gaussian-09revc/g09/l303.exe)
 DipDrv:  MaxL=1.
 Leave Link  303 at Mon Feb 17 01:58:43 2014, MaxMem= 4026531840 cpu:       3.8
 (Enter /usr/caen/gaussian-09revc/g09/l401.exe)
 Harris functional with IExCor=  402 diagonalized for initial guess.
 ExpMin= 1.03D-01 ExpMax= 8.59D+03 ExpMxC= 1.30D+03 IAcc=1 IRadAn=         1 AccDes= 0.00D+00
 HarFok:  IExCor=  402 AccDes= 0.00D+00 IRadAn=         1 IDoV= 1
 ScaDFX=  1.000000  1.000000  1.000000  1.000000
 FoFCou: FMM=F IPFlag=           0 FMFlag=      100000 FMFlg1=           0
         NFxFlg=           0 DoJE=T BraDBF=F KetDBF=T FulRan=T
         Omega=  0.000000  0.000000  1.000000  0.000000  0.000000 ICntrl=     500 IOpCl=  0
         NMat0=    1 NMatS0=    1 NMatT0=    0 NMatD0=    1 NMtDS0=    0 NMtDT0=    0
         I1Cent=           4 NGrid=           0.
 Petite list used in FoFCou.
 Harris En= -504.892373745468    
 Initial guess orbital symmetries:
 Alpha Orbitals:
       Occupied  (A) (A) (A) (A) (A) (A) (A) (A) (A) (A) (A) (A)
                 (A) (A) (A) (A) (A) (A) (A) (A) (A) (A) (A) (A)
                 (A) (A) (A) (A) (A) (A) (A) (A) (A) (A) (A) (A)
                 (A) (A) (A) (A) (A) (A) (A) (A) (A)
       Virtual   (A) (A) (A) (A) (A) (A) (A) (A) (A) (A) (A) (A)
                 (A) (A) (A) (A) (A) (A) (A) (A) (A) (A) (A) (A)
                 (A) (A) (A) (A) (A) (A) (A) (A) (A) (A) (A) (A)
                 (A) (A) (A) (A) (A) (A) (A) (A) (A) (A) (A) (A)
                 (A) (A) (A) (A) (A) (A) (A) (A) (A) (A) (A) (A)
                 (A) (A) (A) (A) (A) (A) (A) (A) (A) (A) (A) (A)
                 (A) (A) (A) (A) (A) (A) (A) (A) (A) (A) (A) (A)
                 (A) (A) (A) (A) (A) (A) (A) (A) (A) (A) (A) (A)
                 (A) (A) (A) (A) (A) (A) (A) (A) (A) (A) (A) (A)
                 (A) (A) (A) (A) (A) (A) (A) (A) (A) (A) (A) (A)
                 (A) (A) (A) (A) (A) (A) (A) (A) (A) (A) (A) (A)
                 (A) (A) (A) (A) (A) (A) (A) (A) (A) (A) (A) (A)
                 (A) (A) (A) (A) (A) (A) (A) (A) (A) (A) (A) (A)
                 (A) (A) (A) (A) (A) (A) (A) (A) (A) (A) (A) (A)
                 (A) (A) (A) (A) (A) (A) (A) (A) (A) (A) (A) (A)
                 (A) (A) (A) (A) (A) (A) (A) (A) (A) (A) (A) (A)
                 (A) (A) (A) (A) (A) (A) (A) (A) (A) (A) (A) (A)
                 (A) (A) (A) (A) (A) (A) (A) (A) (A) (A) (A) (A)
                 (A) (A) (A) (A) (A) (A) (A) (A) (A) (A) (A) (A)
                 (A) (A) (A) (A) (A) (A) (A) (A) (A) (A) (A) (A)
                 (A) (A) (A) (A) (A) (A) (A) (A) (A) (A) (A) (A)
                 (A) (A) (A) (A) (A) (A) (A) (A) (A) (A) (A) (A)
                 (A) (A) (A)
 Beta  Orbitals:
       Occupied  (A) (A) (A) (A) (A) (A) (A) (A) (A) (A) (A) (A)
                 (A) (A) (A) (A) (A) (A) (A) (A) (A) (A) (A) (A)
                 (A) (A) (A) (A) (A) (A) (A) (A) (A) (A) (A) (A)
                 (A) (A) (A) (A) (A) (A) (A) (A)
       Virtual   (A) (A) (A) (A) (A) (A) (A) (A) (A) (A) (A) (A)
                 (A) (A) (A) (A) (A) (A) (A) (A) (A) (A) (A) (A)
                 (A) (A) (A) (A) (A) (A) (A) (A) (A) (A) (A) (A)
                 (A) (A) (A) (A) (A) (A) (A) (A) (A) (A) (A) (A)
                 (A) (A) (A) (A) (A) (A) (A) (A) (A) (A) (A) (A)
                 (A) (A) (A) (A) (A) (A) (A) (A) (A) (A) (A) (A)
                 (A) (A) (A) (A) (A) (A) (A) (A) (A) (A) (A) (A)
                 (A) (A) (A) (A) (A) (A) (A) (A) (A) (A) (A) (A)
                 (A) (A) (A) (A) (A) (A) (A) (A) (A) (A) (A) (A)
                 (A) (A) (A) (A) (A) (A) (A) (A) (A) (A) (A) (A)
                 (A) (A) (A) (A) (A) (A) (A) (A) (A) (A) (A) (A)
                 (A) (A) (A) (A) (A) (A) (A) (A) (A) (A) (A) (A)
                 (A) (A) (A) (A) (A) (A) (A) (A) (A) (A) (A) (A)
                 (A) (A) (A) (A) (A) (A) (A) (A) (A) (A) (A) (A)
                 (A) (A) (A) (A) (A) (A) (A) (A) (A) (A) (A) (A)
                 (A) (A) (A) (A) (A) (A) (A) (A) (A) (A) (A) (A)
                 (A) (A) (A) (A) (A) (A) (A) (A) (A) (A) (A) (A)
                 (A) (A) (A) (A) (A) (A) (A) (A) (A) (A) (A) (A)
                 (A) (A) (A) (A) (A) (A) (A) (A) (A) (A) (A) (A)
                 (A) (A) (A) (A) (A) (A) (A) (A) (A) (A) (A) (A)
                 (A) (A) (A) (A) (A) (A) (A) (A) (A) (A) (A) (A)
                 (A) (A) (A) (A) (A) (A) (A) (A) (A) (A) (A) (A)
                 (A) (A) (A) (A)
 The electronic state of the initial guess is 2-A.
 Initial guess <Sx>= 0.0000 <Sy>= 0.0000 <Sz>= 0.5000 <S**2>= 0.7500 S= 0.5000
 Leave Link  401 at Mon Feb 17 01:58:46 2014, MaxMem= 4026531840 cpu:      12.5
 (Enter /usr/caen/gaussian-09revc/g09/l502.exe)
 UHF open shell SCF:
 Requested convergence on RMS density matrix=1.00D-08 within 128 cycles.
 Requested convergence on MAX density matrix=1.00D-06.
 Requested convergence on             energy=1.00D-06.
 No special actions if energy rises.
 Using DIIS extrapolation, IDIIS=  1040.
 Integral symmetry usage will be decided dynamically.
       256437 words used for storage of precomputed grid.
 Keep R1 and R2 ints in memory in canonical form, NReq=2755661168.
 IEnd=      592595 IEndB=      592595 NGot=  4026531840 MDV=  1287997908
 LenX=  1287997908 LenY=  1287893138
 Symmetry not used in FoFDir.
 MinBra= 0 MaxBra= 2 Meth= 1.
 IRaf=       0 NMat=   1 IRICut=       1 DoRegI=T DoRafI=F ISym2E= 0 JSym2E=0.
 Integral accuracy reduced to 1.0D-05 until final iterations.

 Cycle   1  Pass 0  IDiag  1:
 E= -504.457436068276    
 DIIS: error= 3.12D-02 at cycle   1 NSaved=   1.
 NSaved= 1 IEnMin= 1 EnMin= -504.457436068276     IErMin= 1 ErrMin= 3.12D-02
 ErrMax= 3.12D-02 EMaxC= 1.00D-01 BMatC= 1.49D+00 BMatP= 1.49D+00
 IDIUse=3 WtCom= 6.88D-01 WtEn= 3.12D-01
 Coeff-Com:  0.100D+01
 Coeff-En:   0.100D+01
 Coeff:      0.100D+01
 Gap=     0.192 Goal=   None    Shift=    0.000
 Gap=     0.173 Goal=   None    Shift=    0.000
 GapD=    0.173 DampG=1.000 DampE=0.500 DampFc=0.5000 IDamp=-1.
 Damping current iteration by 5.00D-01
 RMSDP=3.44D-03 MaxDP=1.21D-01              OVMax= 2.93D-01

 Cycle   2  Pass 0  IDiag  1:
 E= -504.604101443716     Delta-E=       -0.146665375440 Rises=F Damp=T
 DIIS: error= 7.05D-03 at cycle   2 NSaved=   2.
 NSaved= 2 IEnMin= 2 EnMin= -504.604101443716     IErMin= 2 ErrMin= 7.05D-03
 ErrMax= 7.05D-03 EMaxC= 1.00D-01 BMatC= 1.28D-01 BMatP= 1.49D+00
 IDIUse=3 WtCom= 9.29D-01 WtEn= 7.05D-02
 Coeff-Com:  0.105D+00 0.895D+00
 Coeff-En:   0.208D+00 0.792D+00
 Coeff:      0.112D+00 0.888D+00
 Gap=     0.294 Goal=   None    Shift=    0.000
 Gap=     0.214 Goal=   None    Shift=    0.000
 RMSDP=1.05D-03 MaxDP=3.68D-02 DE=-1.47D-01 OVMax= 2.81D-01

 Cycle   3  Pass 0  IDiag  1:
 E= -504.802267483299     Delta-E=       -0.198166039583 Rises=F Damp=F
 DIIS: error= 1.53D-02 at cycle   3 NSaved=   3.
 NSaved= 3 IEnMin= 3 EnMin= -504.802267483299     IErMin= 2 ErrMin= 7.05D-03
 ErrMax= 1.53D-02 EMaxC= 1.00D-01 BMatC= 1.33D-01 BMatP= 1.28D-01
 IDIUse=3 WtCom= 8.47D-01 WtEn= 1.53D-01
 Coeff-Com:  0.625D-02 0.504D+00 0.490D+00
 Coeff-En:   0.000D+00 0.000D+00 0.100D+01
 Coeff:      0.529D-02 0.427D+00 0.568D+00
 Gap=     0.276 Goal=   None    Shift=    0.000
 Gap=     0.145 Goal=   None    Shift=    0.000
 RMSDP=7.69D-04 MaxDP=3.66D-02 DE=-1.98D-01 OVMax= 1.81D-01

 Cycle   4  Pass 0  IDiag  1:
 E= -504.818289107676     Delta-E=       -0.016021624378 Rises=F Damp=F
 DIIS: error= 6.88D-03 at cycle   4 NSaved=   4.
 NSaved= 4 IEnMin= 4 EnMin= -504.818289107676     IErMin= 4 ErrMin= 6.88D-03
 ErrMax= 6.88D-03 EMaxC= 1.00D-01 BMatC= 6.58D-02 BMatP= 1.28D-01
 IDIUse=3 WtCom= 9.31D-01 WtEn= 6.88D-02
 Coeff-Com: -0.109D-01 0.109D+00 0.414D+00 0.488D+00
 Coeff-En:   0.000D+00 0.000D+00 0.349D+00 0.651D+00
 Coeff:     -0.101D-01 0.102D+00 0.409D+00 0.499D+00
 Gap=     0.256 Goal=   None    Shift=    0.000
 Gap=     0.139 Goal=   None    Shift=    0.000
 RMSDP=3.07D-04 MaxDP=1.40D-02 DE=-1.60D-02 OVMax= 5.16D-02

 Cycle   5  Pass 0  IDiag  1:
 E= -504.831194070478     Delta-E=       -0.012904962801 Rises=F Damp=F
 DIIS: error= 1.42D-03 at cycle   5 NSaved=   5.
 NSaved= 5 IEnMin= 5 EnMin= -504.831194070478     IErMin= 5 ErrMin= 1.42D-03
 ErrMax= 1.42D-03 EMaxC= 1.00D-01 BMatC= 1.61D-03 BMatP= 6.58D-02
 IDIUse=3 WtCom= 9.86D-01 WtEn= 1.42D-02
 Coeff-Com: -0.489D-02 0.187D-01 0.181D+00 0.233D+00 0.573D+00
 Coeff-En:   0.000D+00 0.000D+00 0.000D+00 0.000D+00 0.100D+01
 Coeff:     -0.482D-02 0.184D-01 0.178D+00 0.230D+00 0.579D+00
 Gap=     0.253 Goal=   None    Shift=    0.000
 Gap=     0.140 Goal=   None    Shift=    0.000
 RMSDP=7.24D-05 MaxDP=3.02D-03 DE=-1.29D-02 OVMax= 6.03D-03

 Cycle   6  Pass 0  IDiag  1:
 E= -504.831430783285     Delta-E=       -0.000236712807 Rises=F Damp=F
 DIIS: error= 1.11D-03 at cycle   6 NSaved=   6.
 NSaved= 6 IEnMin= 6 EnMin= -504.831430783285     IErMin= 6 ErrMin= 1.11D-03
 ErrMax= 1.11D-03 EMaxC= 1.00D-01 BMatC= 7.98D-04 BMatP= 1.61D-03
 IDIUse=3 WtCom= 9.89D-01 WtEn= 1.11D-02
 Coeff-Com: -0.127D-03-0.116D-01 0.341D-01 0.368D-01 0.407D+00 0.534D+00
 Coeff-En:   0.000D+00 0.000D+00 0.000D+00 0.000D+00 0.255D+00 0.745D+00
 Coeff:     -0.125D-03-0.115D-01 0.337D-01 0.364D-01 0.405D+00 0.536D+00
 Gap=     0.254 Goal=   None    Shift=    0.000
 Gap=     0.141 Goal=   None    Shift=    0.000
 RMSDP=3.81D-05 MaxDP=1.79D-03 DE=-2.37D-04 OVMax= 7.99D-03

 Cycle   7  Pass 0  IDiag  1:
 E= -504.831582274052     Delta-E=       -0.000151490767 Rises=F Damp=F
 DIIS: error= 3.08D-04 at cycle   7 NSaved=   7.
 NSaved= 7 IEnMin= 7 EnMin= -504.831582274052     IErMin= 7 ErrMin= 3.08D-04
 ErrMax= 3.08D-04 EMaxC= 1.00D-01 BMatC= 7.41D-05 BMatP= 7.98D-04
 IDIUse=3 WtCom= 9.97D-01 WtEn= 3.08D-03
 Coeff-Com:  0.112D-02-0.761D-02-0.144D-01-0.317D-01 0.700D-01 0.257D+00
 Coeff-Com:  0.725D+00
 Coeff-En:   0.000D+00 0.000D+00 0.000D+00 0.000D+00 0.000D+00 0.000D+00
 Coeff-En:   0.100D+01
 Coeff:      0.111D-02-0.759D-02-0.143D-01-0.316D-01 0.698D-01 0.257D+00
 Coeff:      0.726D+00
 Gap=     0.254 Goal=   None    Shift=    0.000
 Gap=     0.142 Goal=   None    Shift=    0.000
 RMSDP=1.88D-05 MaxDP=5.75D-04 DE=-1.51D-04 OVMax= 3.12D-03

 Cycle   8  Pass 0  IDiag  1:
 E= -504.831604839689     Delta-E=       -0.000022565637 Rises=F Damp=F
 DIIS: error= 9.30D-05 at cycle   8 NSaved=   8.
 NSaved= 8 IEnMin= 8 EnMin= -504.831604839689     IErMin= 8 ErrMin= 9.30D-05
 ErrMax= 9.30D-05 EMaxC= 1.00D-01 BMatC= 1.53D-05 BMatP= 7.41D-05
 IDIUse=1 WtCom= 1.00D+00 WtEn= 0.00D+00
 Coeff-Com:  0.627D-03-0.439D-03-0.138D-01-0.264D-01-0.721D-01-0.671D-02
 Coeff-Com:  0.363D+00 0.755D+00
 Coeff:      0.627D-03-0.439D-03-0.138D-01-0.264D-01-0.721D-01-0.671D-02
 Coeff:      0.363D+00 0.755D+00
 Gap=     0.254 Goal=   None    Shift=    0.000
 Gap=     0.142 Goal=   None    Shift=    0.000
 RMSDP=9.83D-06 MaxDP=3.72D-04 DE=-2.26D-05 OVMax= 2.85D-03

 Initial convergence to 1.0D-05 achieved.  Increase integral accuracy.
 Cycle   9  Pass 1  IDiag  1:
 E= -504.831472293793     Delta-E=        0.000132545896 Rises=F Damp=F
 DIIS: error= 2.74D-05 at cycle   1 NSaved=   1.
 NSaved= 1 IEnMin= 1 EnMin= -504.831472293793     IErMin= 1 ErrMin= 2.74D-05
 ErrMax= 2.74D-05 EMaxC= 1.00D-01 BMatC= 2.13D-06 BMatP= 2.13D-06
 IDIUse=1 WtCom= 1.00D+00 WtEn= 0.00D+00
 Coeff-Com:  0.100D+01
 Coeff:      0.100D+01
 Gap=     0.254 Goal=   None    Shift=    0.000
 Gap=     0.142 Goal=   None    Shift=    0.000
 RMSDP=9.83D-06 MaxDP=3.72D-04 DE= 1.33D-04 OVMax= 6.68D-04

 Cycle  10  Pass 1  IDiag  1:
 E= -504.831472968819     Delta-E=       -0.000000675027 Rises=F Damp=F
 DIIS: error= 2.53D-05 at cycle   2 NSaved=   2.
 NSaved= 2 IEnMin= 2 EnMin= -504.831472968819     IErMin= 2 ErrMin= 2.53D-05
 ErrMax= 2.53D-05 EMaxC= 1.00D-01 BMatC= 1.35D-06 BMatP= 2.13D-06
 IDIUse=1 WtCom= 1.00D+00 WtEn= 0.00D+00
 Coeff-Com:  0.422D+00 0.578D+00
 Coeff:      0.422D+00 0.578D+00
 Gap=     0.254 Goal=   None    Shift=    0.000
 Gap=     0.142 Goal=   None    Shift=    0.000
 RMSDP=2.36D-06 MaxDP=9.47D-05 DE=-6.75D-07 OVMax= 5.94D-04

 Cycle  11  Pass 1  IDiag  1:
 E= -504.831473274333     Delta-E=       -0.000000305514 Rises=F Damp=F
 DIIS: error= 2.13D-05 at cycle   3 NSaved=   3.
 NSaved= 3 IEnMin= 3 EnMin= -504.831473274333     IErMin= 3 ErrMin= 2.13D-05
 ErrMax= 2.13D-05 EMaxC= 1.00D-01 BMatC= 4.46D-07 BMatP= 1.35D-06
 IDIUse=1 WtCom= 1.00D+00 WtEn= 0.00D+00
 Coeff-Com: -0.676D-02 0.342D+00 0.665D+00
 Coeff:     -0.676D-02 0.342D+00 0.665D+00
 Gap=     0.254 Goal=   None    Shift=    0.000
 Gap=     0.142 Goal=   None    Shift=    0.000
 RMSDP=1.38D-06 MaxDP=5.30D-05 DE=-3.06D-07 OVMax= 3.00D-04

 Cycle  12  Pass 1  IDiag  1:
 E= -504.831473405250     Delta-E=       -0.000000130917 Rises=F Damp=F
 DIIS: error= 1.02D-05 at cycle   4 NSaved=   4.
 NSaved= 4 IEnMin= 4 EnMin= -504.831473405250     IErMin= 4 ErrMin= 1.02D-05
 ErrMax= 1.02D-05 EMaxC= 1.00D-01 BMatC= 8.25D-08 BMatP= 4.46D-07
 IDIUse=1 WtCom= 1.00D+00 WtEn= 0.00D+00
 Coeff-Com: -0.782D-01 0.966D-01 0.357D+00 0.625D+00
 Coeff:     -0.782D-01 0.966D-01 0.357D+00 0.625D+00
 Gap=     0.254 Goal=   None    Shift=    0.000
 Gap=     0.142 Goal=   None    Shift=    0.000
 RMSDP=7.53D-07 MaxDP=3.72D-05 DE=-1.31D-07 OVMax= 2.65D-04

 Cycle  13  Pass 1  IDiag  1:
 E= -504.831473442489     Delta-E=       -0.000000037239 Rises=F Damp=F
 DIIS: error= 4.98D-06 at cycle   5 NSaved=   5.
 NSaved= 5 IEnMin= 5 EnMin= -504.831473442489     IErMin= 5 ErrMin= 4.98D-06
 ErrMax= 4.98D-06 EMaxC= 1.00D-01 BMatC= 2.28D-08 BMatP= 8.25D-08
 IDIUse=1 WtCom= 1.00D+00 WtEn= 0.00D+00
 Coeff-Com: -0.324D-01-0.645D-01-0.913D-01 0.302D+00 0.886D+00
 Coeff:     -0.324D-01-0.645D-01-0.913D-01 0.302D+00 0.886D+00
 Gap=     0.254 Goal=   None    Shift=    0.000
 Gap=     0.142 Goal=   None    Shift=    0.000
 RMSDP=5.72D-07 MaxDP=2.23D-05 DE=-3.72D-08 OVMax= 1.42D-04

 Cycle  14  Pass 1  IDiag  1:
 E= -504.831473456978     Delta-E=       -0.000000014489 Rises=F Damp=F
 DIIS: error= 2.01D-06 at cycle   6 NSaved=   6.
 NSaved= 6 IEnMin= 6 EnMin= -504.831473456978     IErMin= 6 ErrMin= 2.01D-06
 ErrMax= 2.01D-06 EMaxC= 1.00D-01 BMatC= 3.78D-09 BMatP= 2.28D-08
 IDIUse=1 WtCom= 1.00D+00 WtEn= 0.00D+00
 Coeff-Com:  0.684D-02-0.586D-01-0.157D+00-0.195D-01 0.422D+00 0.807D+00
 Coeff:      0.684D-02-0.586D-01-0.157D+00-0.195D-01 0.422D+00 0.807D+00
 Gap=     0.254 Goal=   None    Shift=    0.000
 Gap=     0.142 Goal=   None    Shift=    0.000
 RMSDP=2.99D-07 MaxDP=1.35D-05 DE=-1.45D-08 OVMax= 9.03D-05

 Cycle  15  Pass 1  IDiag  1:
 E= -504.831473459409     Delta-E=       -0.000000002431 Rises=F Damp=F
 DIIS: error= 1.27D-06 at cycle   7 NSaved=   7.
 NSaved= 7 IEnMin= 7 EnMin= -504.831473459409     IErMin= 7 ErrMin= 1.27D-06
 ErrMax= 1.27D-06 EMaxC= 1.00D-01 BMatC= 1.02D-09 BMatP= 3.78D-09
 IDIUse=1 WtCom= 1.00D+00 WtEn= 0.00D+00
 Coeff-Com:  0.621D-02-0.348D-01-0.972D-01-0.284D-01 0.224D+00 0.514D+00
 Coeff-Com:  0.416D+00
 Coeff:      0.621D-02-0.348D-01-0.972D-01-0.284D-01 0.224D+00 0.514D+00
 Coeff:      0.416D+00
 Gap=     0.254 Goal=   None    Shift=    0.000
 Gap=     0.142 Goal=   None    Shift=    0.000
 RMSDP=4.78D-08 MaxDP=2.60D-06 DE=-2.43D-09 OVMax= 7.47D-06

 Cycle  16  Pass 1  IDiag  1:
 E= -504.831473459616     Delta-E=       -0.000000000207 Rises=F Damp=F
 DIIS: error= 3.41D-07 at cycle   8 NSaved=   8.
 NSaved= 8 IEnMin= 8 EnMin= -504.831473459616     IErMin= 8 ErrMin= 3.41D-07
 ErrMax= 3.41D-07 EMaxC= 1.00D-01 BMatC= 1.11D-10 BMatP= 1.02D-09
 IDIUse=1 WtCom= 1.00D+00 WtEn= 0.00D+00
 Coeff-Com:  0.169D-02-0.516D-02-0.152D-01-0.117D-01 0.228D-01 0.866D-01
 Coeff-Com:  0.242D+00 0.679D+00
 Coeff:      0.169D-02-0.516D-02-0.152D-01-0.117D-01 0.228D-01 0.866D-01
 Coeff:      0.242D+00 0.679D+00
 Gap=     0.254 Goal=   None    Shift=    0.000
 Gap=     0.142 Goal=   None    Shift=    0.000
 RMSDP=2.18D-08 MaxDP=1.27D-06 DE=-2.07D-10 OVMax= 5.10D-06

 Cycle  17  Pass 1  IDiag  1:
 E= -504.831473459652     Delta-E=       -0.000000000036 Rises=F Damp=F
 DIIS: error= 7.96D-08 at cycle   9 NSaved=   9.
 NSaved= 9 IEnMin= 9 EnMin= -504.831473459652     IErMin= 9 ErrMin= 7.96D-08
 ErrMax= 7.96D-08 EMaxC= 1.00D-01 BMatC= 1.34D-11 BMatP= 1.11D-10
 IDIUse=1 WtCom= 1.00D+00 WtEn= 0.00D+00
 Coeff-Com: -0.767D-03 0.622D-02 0.177D-01 0.159D-02-0.434D-01-0.962D-01
 Coeff-Com: -0.722D-02 0.247D+00 0.875D+00
 Coeff:     -0.767D-03 0.622D-02 0.177D-01 0.159D-02-0.434D-01-0.962D-01
 Coeff:     -0.722D-02 0.247D+00 0.875D+00
 Gap=     0.254 Goal=   None    Shift=    0.000
 Gap=     0.142 Goal=   None    Shift=    0.000
 RMSDP=1.31D-08 MaxDP=5.56D-07 DE=-3.64D-11 OVMax= 3.14D-06

 Cycle  18  Pass 1  IDiag  1:
 E= -504.831473459657     Delta-E=       -0.000000000005 Rises=F Damp=F
 DIIS: error= 3.52D-08 at cycle  10 NSaved=  10.
 NSaved=10 IEnMin=10 EnMin= -504.831473459657     IErMin=10 ErrMin= 3.52D-08
 ErrMax= 3.52D-08 EMaxC= 1.00D-01 BMatC= 2.07D-12 BMatP= 1.34D-11
 IDIUse=1 WtCom= 1.00D+00 WtEn= 0.00D+00
 Coeff-Com: -0.559D-03 0.310D-02 0.920D-02 0.201D-02-0.193D-01-0.504D-01
 Coeff-Com: -0.397D-01-0.774D-02 0.330D+00 0.774D+00
 Coeff:     -0.559D-03 0.310D-02 0.920D-02 0.201D-02-0.193D-01-0.504D-01
 Coeff:     -0.397D-01-0.774D-02 0.330D+00 0.774D+00
 Gap=     0.254 Goal=   None    Shift=    0.000
 Gap=     0.142 Goal=   None    Shift=    0.000
 RMSDP=4.39D-09 MaxDP=1.97D-07 DE=-5.46D-12 OVMax= 1.01D-06

 SCF Done:  E(UB3LYP) =  -504.831473460     A.U. after   18 cycles
             Convg  =    0.4393D-08             -V/T =  2.0043
 <Sx>= 0.0000 <Sy>= 0.0000 <Sz>= 0.5000 <S**2>= 0.7567 S= 0.5034
 <L.S>= 0.000000000000E+00
 KE= 5.026737782026D+02 PE=-2.558965652853D+03 EE= 8.601606711450D+02
 Annihilation of the first spin contaminant:
 S**2 before annihilation     0.7567,   after     0.7500
 Leave Link  502 at Mon Feb 17 02:03:09 2014, MaxMem= 4026531840 cpu:    1870.8
 (Enter /usr/caen/gaussian-09revc/g09/l801.exe)
 Range of M.O.s used for correlation:     1   312
 NBasis=   312 NAE=    45 NBE=    44 NFC=     0 NFV=     0
 NROrb=    312 NOA=    45 NOB=    44 NVA=   267 NVB=   268
 Leave Link  801 at Mon Feb 17 02:03:10 2014, MaxMem= 4026531840 cpu:       0.4
 (Enter /usr/caen/gaussian-09revc/g09/l1101.exe)
 Using compressed storage, NAtomX=    30.
 Will process  31 centers per pass.
 Leave Link 1101 at Mon Feb 17 02:03:13 2014, MaxMem= 4026531840 cpu:      18.5
 (Enter /usr/caen/gaussian-09revc/g09/l1102.exe)
 Symmetrizing basis deriv contribution to polar:
 IMax=3 JMax=2 DiffMx= 0.00D+00
 Leave Link 1102 at Mon Feb 17 02:03:14 2014, MaxMem= 4026531840 cpu:       1.4
 (Enter /usr/caen/gaussian-09revc/g09/l1110.exe)
 Forming Gx(P) for the SCF density, NAtomX=    30.
 Integral derivatives from FoFDir/FoFCou, PRISM(SPDF).
 Do as many integral derivatives as possible in FoFDir.
 G2DrvN: MDV=    4026531496.
 G2DrvN: will do    31 centers at a time, making    1 passes doing MaxLOS=2.
 Calling FoFCou, ICntrl=  3107 FMM=F I1Cent=   0 AccDes= 0.00D+00.
 FoFCou: FMM=F IPFlag=           0 FMFlag=      100000 FMFlg1=           0
         NFxFlg=           0 DoJE=F BraDBF=F KetDBF=F FulRan=T
         Omega=  0.000000  0.000000  1.000000  0.000000  0.000000 ICntrl=    3107 IOpCl=  1
         NMat0=    1 NMatS0=    1 NMatT0=    0 NMatD0=    1 NMtDS0=    0 NMtDT0=    0
         I1Cent=           0 NGrid=           0.
 Symmetry not used in FoFCou.
 FoFDir/FoFCou used for L=0 through L=2.
 End of G2Drv Frequency-dependent properties file   721 does not exist.
 End of G2Drv Frequency-dependent properties file   722 does not exist.
 Leave Link 1110 at Mon Feb 17 02:07:34 2014, MaxMem= 4026531840 cpu:    1815.6
 (Enter /usr/caen/gaussian-09revc/g09/l1002.exe)
 Minotr:  UHF open shell wavefunction.
          IDoAtm=111111111111111111111111111111
          Direct CPHF calculation.
          Differentiating once with respect to nuclear coordinates.
          Requested convergence is 1.0D-06 RMS, and 1.0D-05 maximum.
          Secondary convergence is 1.0D-12 RMS, and 1.0D-12 maximum.
          NewPWx=T KeepS1=F KeepF1=F KeepIn=T MapXYZ=F SortEE=F KeepMc=T.
          MDV=    4026531536 using IRadAn=       2.
 Generate precomputed XC quadrature information.
          Keep R1 and R2 ints in memory in canonical form, NReq=2738891857.
 Symmetry not used in FoFDir.
 MinBra= 0 MaxBra= 2 Meth= 1.
 IRaf=       0 NMat=   1 IRICut=       1 DoRegI=T DoRafI=F ISym2E= 0 JSym2E=0.
          Solving linear equations simultaneously, MaxMat=       0.
          There are    93 degrees of freedom in the 1st order CPHF.  IDoFFX=5.
     87 vectors produced by pass  0 Test12= 2.56D-10 1.08D-07 XBig12= 2.63D-01 2.96D-01.
 AX will form    87 AO Fock derivatives at one time.
     87 vectors produced by pass  1 Test12= 2.56D-10 1.08D-07 XBig12= 1.16D-02 1.27D-02.
     87 vectors produced by pass  2 Test12= 2.56D-10 1.08D-07 XBig12= 7.82D-05 1.58D-03.
     87 vectors produced by pass  3 Test12= 2.56D-10 1.08D-07 XBig12= 4.24D-07 7.87D-05.
     82 vectors produced by pass  4 Test12= 2.56D-10 1.08D-07 XBig12= 1.63D-09 3.88D-06.
      9 vectors produced by pass  5 Test12= 2.56D-10 1.08D-07 XBig12= 8.80D-12 1.98D-07.
 Inverted reduced A of dimension   439 with in-core refinement.
 End of Minotr Frequency-dependent properties file   721 does not exist.
 End of Minotr Frequency-dependent properties file   722 does not exist.
 Leave Link 1002 at Mon Feb 17 02:15:12 2014, MaxMem= 4026531840 cpu:    3205.8
 (Enter /usr/caen/gaussian-09revc/g09/l601.exe)
 Copying SCF densities to generalized density rwf, IOpCl= 1 IROHF=0.

 **********************************************************************

            Population analysis using the SCF density.

 **********************************************************************

 Orbital symmetries:
 Alpha Orbitals:
       Occupied  (A) (A) (A) (A) (A) (A) (A) (A) (A) (A) (A) (A)
                 (A) (A) (A) (A) (A) (A) (A) (A) (A) (A) (A) (A)
                 (A) (A) (A) (A) (A) (A) (A) (A) (A) (A) (A) (A)
                 (A) (A) (A) (A) (A) (A) (A) (A) (A)
       Virtual   (A) (A) (A) (A) (A) (A) (A) (A) (A) (A) (A) (A)
                 (A) (A) (A) (A) (A) (A) (A) (A) (A) (A) (A) (A)
                 (A) (A) (A) (A) (A) (A) (A) (A) (A) (A) (A) (A)
                 (A) (A) (A) (A) (A) (A) (A) (A) (A) (A) (A) (A)
                 (A) (A) (A) (A) (A) (A) (A) (A) (A) (A) (A) (A)
                 (A) (A) (A) (A) (A) (A) (A) (A) (A) (A) (A) (A)
                 (A) (A) (A) (A) (A) (A) (A) (A) (A) (A) (A) (A)
                 (A) (A) (A) (A) (A) (A) (A) (A) (A) (A) (A) (A)
                 (A) (A) (A) (A) (A) (A) (A) (A) (A) (A) (A) (A)
                 (A) (A) (A) (A) (A) (A) (A) (A) (A) (A) (A) (A)
                 (A) (A) (A) (A) (A) (A) (A) (A) (A) (A) (A) (A)
                 (A) (A) (A) (A) (A) (A) (A) (A) (A) (A) (A) (A)
                 (A) (A) (A) (A) (A) (A) (A) (A) (A) (A) (A) (A)
                 (A) (A) (A) (A) (A) (A) (A) (A) (A) (A) (A) (A)
                 (A) (A) (A) (A) (A) (A) (A) (A) (A) (A) (A) (A)
                 (A) (A) (A) (A) (A) (A) (A) (A) (A) (A) (A) (A)
                 (A) (A) (A) (A) (A) (A) (A) (A) (A) (A) (A) (A)
                 (A) (A) (A) (A) (A) (A) (A) (A) (A) (A) (A) (A)
                 (A) (A) (A) (A) (A) (A) (A) (A) (A) (A) (A) (A)
                 (A) (A) (A) (A) (A) (A) (A) (A) (A) (A) (A) (A)
                 (A) (A) (A) (A) (A) (A) (A) (A) (A) (A) (A) (A)
                 (A) (A) (A) (A) (A) (A) (A) (A) (A) (A) (A) (A)
                 (A) (A) (A)
 Beta  Orbitals:
       Occupied  (A) (A) (A) (A) (A) (A) (A) (A) (A) (A) (A) (A)
                 (A) (A) (A) (A) (A) (A) (A) (A) (A) (A) (A) (A)
                 (A) (A) (A) (A) (A) (A) (A) (A) (A) (A) (A) (A)
                 (A) (A) (A) (A) (A) (A) (A) (A)
       Virtual   (A) (A) (A) (A) (A) (A) (A) (A) (A) (A) (A) (A)
                 (A) (A) (A) (A) (A) (A) (A) (A) (A) (A) (A) (A)
                 (A) (A) (A) (A) (A) (A) (A) (A) (A) (A) (A) (A)
                 (A) (A) (A) (A) (A) (A) (A) (A) (A) (A) (A) (A)
                 (A) (A) (A) (A) (A) (A) (A) (A) (A) (A) (A) (A)
                 (A) (A) (A) (A) (A) (A) (A) (A) (A) (A) (A) (A)
                 (A) (A) (A) (A) (A) (A) (A) (A) (A) (A) (A) (A)
                 (A) (A) (A) (A) (A) (A) (A) (A) (A) (A) (A) (A)
                 (A) (A) (A) (A) (A) (A) (A) (A) (A) (A) (A) (A)
                 (A) (A) (A) (A) (A) (A) (A) (A) (A) (A) (A) (A)
                 (A) (A) (A) (A) (A) (A) (A) (A) (A) (A) (A) (A)
                 (A) (A) (A) (A) (A) (A) (A) (A) (A) (A) (A) (A)
                 (A) (A) (A) (A) (A) (A) (A) (A) (A) (A) (A) (A)
                 (A) (A) (A) (A) (A) (A) (A) (A) (A) (A) (A) (A)
                 (A) (A) (A) (A) (A) (A) (A) (A) (A) (A) (A) (A)
                 (A) (A) (A) (A) (A) (A) (A) (A) (A) (A) (A) (A)
                 (A) (A) (A) (A) (A) (A) (A) (A) (A) (A) (A) (A)
                 (A) (A) (A) (A) (A) (A) (A) (A) (A) (A) (A) (A)
                 (A) (A) (A) (A) (A) (A) (A) (A) (A) (A) (A) (A)
                 (A) (A) (A) (A) (A) (A) (A) (A) (A) (A) (A) (A)
                 (A) (A) (A) (A) (A) (A) (A) (A) (A) (A) (A) (A)
                 (A) (A) (A) (A) (A) (A) (A) (A) (A) (A) (A) (A)
                 (A) (A) (A) (A)
 The electronic state is 2-A.
 Alpha  occ. eigenvalues --  -19.17425 -19.16090 -10.21481 -10.19265 -10.17821
 Alpha  occ. eigenvalues --  -10.17211 -10.16704 -10.16596 -10.16527 -10.16524
 Alpha  occ. eigenvalues --  -10.16309  -1.11446  -0.88441  -0.83001  -0.79960
 Alpha  occ. eigenvalues --   -0.75509  -0.69554  -0.68412  -0.66726  -0.60883
 Alpha  occ. eigenvalues --   -0.57385  -0.56728  -0.51020  -0.49020  -0.47446
 Alpha  occ. eigenvalues --   -0.45741  -0.45204  -0.44555  -0.43100  -0.42208
 Alpha  occ. eigenvalues --   -0.40704  -0.39980  -0.39518  -0.38557  -0.37881
 Alpha  occ. eigenvalues --   -0.37096  -0.36210  -0.35078  -0.33851  -0.32762
 Alpha  occ. eigenvalues --   -0.32694  -0.32196  -0.29010  -0.26352  -0.21518
 Alpha virt. eigenvalues --    0.03915   0.04390   0.04558   0.06174   0.06417
 Alpha virt. eigenvalues --    0.08303   0.08907   0.09154   0.09730   0.10450
 Alpha virt. eigenvalues --    0.10957   0.11550   0.12690   0.12951   0.13832
 Alpha virt. eigenvalues --    0.14280   0.14664   0.15653   0.16647   0.17399
 Alpha virt. eigenvalues --    0.18496   0.20300   0.21047   0.22203   0.23551
 Alpha virt. eigenvalues --    0.24611   0.25577   0.25711   0.26975   0.29099
 Alpha virt. eigenvalues --    0.29925   0.31899   0.33023   0.33492   0.34103
 Alpha virt. eigenvalues --    0.35191   0.36632   0.37338   0.39318   0.40247
 Alpha virt. eigenvalues --    0.42825   0.44484   0.46874   0.47385   0.48092
 Alpha virt. eigenvalues --    0.50710   0.52123   0.52866   0.53328   0.54126
 Alpha virt. eigenvalues --    0.55373   0.55907   0.56541   0.56700   0.56996
 Alpha virt. eigenvalues --    0.57462   0.58240   0.58607   0.59083   0.59573
 Alpha virt. eigenvalues --    0.59605   0.60080   0.61049   0.61351   0.61704
 Alpha virt. eigenvalues --    0.62996   0.63542   0.63790   0.64745   0.65171
 Alpha virt. eigenvalues --    0.66778   0.67458   0.68926   0.71566   0.74756
 Alpha virt. eigenvalues --    0.76818   0.80385   0.80826   0.86280   0.87113
 Alpha virt. eigenvalues --    0.89731   0.91781   0.93759   0.94775   0.97534
 Alpha virt. eigenvalues --    0.98319   0.99746   1.01881   1.04218   1.06240
 Alpha virt. eigenvalues --    1.10733   1.14056   1.17253   1.18099   1.19821
 Alpha virt. eigenvalues --    1.23969   1.25334   1.27694   1.29409   1.33434
 Alpha virt. eigenvalues --    1.34167   1.36823   1.37811   1.38921   1.40161
 Alpha virt. eigenvalues --    1.41820   1.43598   1.45070   1.45230   1.45696
 Alpha virt. eigenvalues --    1.46309   1.47471   1.49156   1.50025   1.50980
 Alpha virt. eigenvalues --    1.51471   1.52299   1.53511   1.53754   1.54653
 Alpha virt. eigenvalues --    1.55632   1.55843   1.57156   1.58448   1.60541
 Alpha virt. eigenvalues --    1.61035   1.62433   1.62903   1.63389   1.63888
 Alpha virt. eigenvalues --    1.65525   1.67584   1.68318   1.70144   1.70790
 Alpha virt. eigenvalues --    1.72942   1.74090   1.74600   1.76346   1.77659
 Alpha virt. eigenvalues --    1.78968   1.80218   1.81261   1.83092   1.83830
 Alpha virt. eigenvalues --    1.85280   1.88384   1.89740   1.90786   1.93067
 Alpha virt. eigenvalues --    1.93724   1.95347   1.97115   2.00015   2.03111
 Alpha virt. eigenvalues --    2.04791   2.05861   2.08407   2.09333   2.10605
 Alpha virt. eigenvalues --    2.12624   2.13295   2.14188   2.16282   2.18655
 Alpha virt. eigenvalues --    2.19929   2.22597   2.25998   2.27332   2.29059
 Alpha virt. eigenvalues --    2.32995   2.33531   2.35219   2.37365   2.37903
 Alpha virt. eigenvalues --    2.39609   2.40967   2.41589   2.42347   2.44953
 Alpha virt. eigenvalues --    2.46063   2.47294   2.48631   2.49423   2.50233
 Alpha virt. eigenvalues --    2.50575   2.51683   2.52845   2.53992   2.55027
 Alpha virt. eigenvalues --    2.55749   2.56747   2.58503   2.59616   2.60339
 Alpha virt. eigenvalues --    2.61175   2.63031   2.63324   2.65061   2.66515
 Alpha virt. eigenvalues --    2.67794   2.70153   2.70467   2.72402   2.72845
 Alpha virt. eigenvalues --    2.75548   2.76159   2.78102   2.78846   2.83182
 Alpha virt. eigenvalues --    2.84460   2.85733   2.88927   2.91312   2.91822
 Alpha virt. eigenvalues --    2.94447   2.96158   2.98529   3.02770   3.07094
 Alpha virt. eigenvalues --    3.12104   3.14043   3.17270   3.23577   3.25055
 Alpha virt. eigenvalues --    3.26724   3.28292   3.35655   3.44084   3.57915
 Alpha virt. eigenvalues --    3.69120   3.73344   3.75443   3.77135   3.78345
 Alpha virt. eigenvalues --    3.79528   3.80255   3.81547   3.82057   3.84634
 Alpha virt. eigenvalues --    3.85792   3.90893   3.96452   3.98552   4.15501
 Alpha virt. eigenvalues --    4.26506   4.28677   4.30492   4.36311   4.37221
 Alpha virt. eigenvalues --    4.73711   4.88121   4.93952   5.19711   5.36475
 Alpha virt. eigenvalues --    5.81196  23.75975  23.78316  23.82169  23.84961
 Alpha virt. eigenvalues --   23.90188  23.90515  23.93149  23.94164  23.95921
 Alpha virt. eigenvalues --   49.79763  49.86110
  Beta  occ. eigenvalues --  -19.17195 -19.14890 -10.21486 -10.18398 -10.17814
  Beta  occ. eigenvalues --  -10.17227 -10.16672 -10.16615 -10.16529 -10.16523
  Beta  occ. eigenvalues --  -10.16327  -1.10157  -0.86703  -0.82403  -0.79357
  Beta  occ. eigenvalues --   -0.75288  -0.69392  -0.68331  -0.66462  -0.60655
  Beta  occ. eigenvalues --   -0.57265  -0.55061  -0.50232  -0.48373  -0.47068
  Beta  occ. eigenvalues --   -0.45327  -0.44957  -0.43876  -0.42746  -0.41421
  Beta  occ. eigenvalues --   -0.39878  -0.39561  -0.39008  -0.38453  -0.37481
  Beta  occ. eigenvalues --   -0.36765  -0.35989  -0.34395  -0.33615  -0.32611
  Beta  occ. eigenvalues --   -0.32407  -0.31975  -0.27737  -0.24682
  Beta virt. eigenvalues --   -0.10494   0.04174   0.04513   0.04939   0.06342
  Beta virt. eigenvalues --    0.06458   0.08372   0.08978   0.09286   0.09804
  Beta virt. eigenvalues --    0.10572   0.11081   0.11653   0.12753   0.12990
  Beta virt. eigenvalues --    0.13924   0.14412   0.14755   0.15810   0.16874
  Beta virt. eigenvalues --    0.17482   0.18855   0.20531   0.21371   0.22510
  Beta virt. eigenvalues --    0.23802   0.24752   0.25790   0.25953   0.27240
  Beta virt. eigenvalues --    0.29288   0.30608   0.31982   0.33291   0.33712
  Beta virt. eigenvalues --    0.34256   0.35452   0.36735   0.37489   0.39388
  Beta virt. eigenvalues --    0.40300   0.42920   0.44698   0.47004   0.47601
  Beta virt. eigenvalues --    0.48995   0.50881   0.52778   0.53229   0.53625
  Beta virt. eigenvalues --    0.54545   0.55507   0.56087   0.56726   0.57008
  Beta virt. eigenvalues --    0.57195   0.57566   0.58329   0.58729   0.59194
  Beta virt. eigenvalues --    0.59642   0.59706   0.60169   0.61178   0.61545
  Beta virt. eigenvalues --    0.61943   0.63093   0.63684   0.63978   0.64862
  Beta virt. eigenvalues --    0.65288   0.66926   0.67632   0.69045   0.71931
  Beta virt. eigenvalues --    0.74903   0.76986   0.80514   0.80995   0.86836
  Beta virt. eigenvalues --    0.87425   0.89961   0.92033   0.94614   0.95071
  Beta virt. eigenvalues --    0.97870   0.98749   1.00035   1.02106   1.04472
  Beta virt. eigenvalues --    1.06709   1.11155   1.14209   1.17364   1.18320
  Beta virt. eigenvalues --    1.19979   1.24116   1.25498   1.27852   1.29615
  Beta virt. eigenvalues --    1.33828   1.34556   1.37034   1.37960   1.39079
  Beta virt. eigenvalues --    1.40342   1.42006   1.43797   1.45253   1.45371
  Beta virt. eigenvalues --    1.45825   1.46508   1.47934   1.49370   1.50593
  Beta virt. eigenvalues --    1.51310   1.51785   1.52373   1.53772   1.54429
  Beta virt. eigenvalues --    1.54727   1.55917   1.56138   1.57360   1.58524
  Beta virt. eigenvalues --    1.60808   1.61149   1.62631   1.63056   1.63522
  Beta virt. eigenvalues --    1.64118   1.65651   1.67730   1.68604   1.70349
  Beta virt. eigenvalues --    1.70912   1.73252   1.74279   1.74687   1.76495
  Beta virt. eigenvalues --    1.77884   1.79099   1.80365   1.81377   1.83343
  Beta virt. eigenvalues --    1.84206   1.85587   1.88503   1.89820   1.90887
  Beta virt. eigenvalues --    1.93297   1.94260   1.95655   1.97531   2.00105
  Beta virt. eigenvalues --    2.03173   2.05067   2.06173   2.09019   2.09524
  Beta virt. eigenvalues --    2.10754   2.12740   2.13383   2.14558   2.16665
  Beta virt. eigenvalues --    2.19055   2.20031   2.22707   2.26166   2.27577
  Beta virt. eigenvalues --    2.29447   2.33138   2.33841   2.35380   2.37461
  Beta virt. eigenvalues --    2.37967   2.39710   2.41132   2.41757   2.42566
  Beta virt. eigenvalues --    2.45410   2.46139   2.47579   2.48672   2.49523
  Beta virt. eigenvalues --    2.50391   2.50778   2.52157   2.53030   2.54201
  Beta virt. eigenvalues --    2.55371   2.56023   2.57105   2.58838   2.59807
  Beta virt. eigenvalues --    2.60534   2.61295   2.63421   2.63685   2.65336
  Beta virt. eigenvalues --    2.66667   2.68106   2.70362   2.70756   2.72599
  Beta virt. eigenvalues --    2.73148   2.75734   2.76307   2.78353   2.78978
  Beta virt. eigenvalues --    2.83374   2.84629   2.85959   2.89098   2.91652
  Beta virt. eigenvalues --    2.92040   2.94642   2.97470   2.99066   3.03308
  Beta virt. eigenvalues --    3.07404   3.12366   3.14446   3.17627   3.24501
  Beta virt. eigenvalues --    3.25936   3.28425   3.28699   3.36854   3.44188
  Beta virt. eigenvalues --    3.58825   3.69215   3.73789   3.75666   3.77269
  Beta virt. eigenvalues --    3.78376   3.79623   3.80361   3.81696   3.82274
  Beta virt. eigenvalues --    3.84705   3.86223   3.91541   3.98294   3.98591
  Beta virt. eigenvalues --    4.15824   4.26549   4.28962   4.31121   4.36644
  Beta virt. eigenvalues --    4.37377   4.74260   4.89236   4.94885   5.21835
  Beta virt. eigenvalues --    5.38244   5.82048  23.76775  23.78348  23.82251
  Beta virt. eigenvalues --   23.84948  23.90217  23.90525  23.93147  23.94153
  Beta virt. eigenvalues --   23.95966  49.80407  49.86889
          Condensed to atoms (all electrons):
              1          2          3          4          5          6
     1  C    4.893637   0.402768   0.399310   0.402875   0.338793  -0.038659
     2  H    0.402768   0.586687  -0.029865  -0.031608  -0.037983   0.009338
     3  H    0.399310  -0.029865   0.577339  -0.028232  -0.027605  -0.006442
     4  H    0.402875  -0.031608  -0.028232   0.586738  -0.036533  -0.006580
     5  C    0.338793  -0.037983  -0.027605  -0.036533   5.178880   0.410693
     6  H   -0.038659   0.009338  -0.006442  -0.006580   0.410693   0.602451
     7  C   -0.055631  -0.006407  -0.006667   0.008841   0.321593  -0.057098
     8  H   -0.008989  -0.000745   0.004330   0.000477  -0.041034  -0.001055
     9  H   -0.001812   0.002909  -0.000086  -0.000580  -0.041807   0.008249
    10  C    0.006334   0.000118   0.000060  -0.000431  -0.045456  -0.005998
    11  H   -0.000313   0.000023  -0.000046   0.000015   0.000879   0.002409
    12  H    0.000817  -0.000009   0.000007  -0.000003  -0.009110   0.002649
    13  C   -0.000239   0.000013  -0.000022   0.000012   0.006364   0.000459
    14  H   -0.000013  -0.000005  -0.000001   0.000002   0.000412   0.000016
    15  H    0.000012   0.000000   0.000002  -0.000001  -0.000395  -0.000024
    16  C   -0.000040  -0.000014   0.000004   0.000002  -0.000788  -0.000193
    17  H    0.000101  -0.000012   0.000008  -0.000006   0.000260   0.000080
    18  C    0.000001   0.000000   0.000000   0.000000   0.000060   0.000017
    19  H    0.000000   0.000000   0.000000   0.000000   0.000004   0.000000
    20  H    0.000000   0.000000   0.000000   0.000000   0.000005   0.000005
    21  H   -0.000002   0.000000   0.000000   0.000000   0.000040   0.000027
    22  C   -0.052525  -0.005736   0.006684  -0.003880   0.350852  -0.039138
    23  H    0.001060   0.005415  -0.000038  -0.001225  -0.056533   0.008948
    24  H   -0.003378  -0.001049  -0.000393   0.005283  -0.048090  -0.009144
    25  C    0.000001   0.000000   0.000000   0.000000   0.000018  -0.000002
    26  H    0.000000   0.000000   0.000000   0.000000  -0.000002   0.000001
    27  H    0.000000   0.000000   0.000000   0.000000  -0.000001   0.000000
    28  H    0.000000  -0.000001   0.000000   0.000000  -0.000020   0.000001
    29  O    0.003370  -0.000047  -0.000212   0.000084  -0.045071   0.001382
    30  O   -0.000317  -0.000198   0.000009   0.000013  -0.005783  -0.000369
              7          8          9         10         11         12
     1  C   -0.055631  -0.008989  -0.001812   0.006334  -0.000313   0.000817
     2  H   -0.006407  -0.000745   0.002909   0.000118   0.000023  -0.000009
     3  H   -0.006667   0.004330  -0.000086   0.000060  -0.000046   0.000007
     4  H    0.008841   0.000477  -0.000580  -0.000431   0.000015  -0.000003
     5  C    0.321593  -0.041034  -0.041807  -0.045456   0.000879  -0.009110
     6  H   -0.057098  -0.001055   0.008249  -0.005998   0.002409   0.002649
     7  C    5.040313   0.408993   0.408778   0.335824  -0.035683  -0.044554
     8  H    0.408993   0.595044  -0.030408  -0.036152  -0.015695   0.007033
     9  H    0.408778  -0.030408   0.574206  -0.044473   0.007035   0.002319
    10  C    0.335824  -0.036152  -0.044473   4.971647   0.401750   0.412577
    11  H   -0.035683  -0.015695   0.007035   0.401750   0.597718  -0.033023
    12  H   -0.044554   0.007033   0.002319   0.412577  -0.033023   0.571244
    13  C   -0.053318   0.000119  -0.009150   0.358514  -0.031615  -0.042370
    14  H   -0.008732   0.002675   0.000576  -0.040046  -0.001376   0.007879
    15  H    0.007062  -0.000333   0.000547  -0.033952  -0.009133  -0.001133
    16  C   -0.004654   0.000272   0.003590  -0.056743   0.007972  -0.007082
    17  H   -0.001660  -0.000144   0.000842  -0.003764   0.000228  -0.001828
    18  C    0.000785  -0.000029   0.000143  -0.007766  -0.000390   0.000143
    19  H   -0.000045   0.000004  -0.000022   0.000132   0.000081  -0.000138
    20  H   -0.000013  -0.000002  -0.000032  -0.000098   0.000029  -0.000454
    21  H    0.000109   0.000002   0.000019   0.000379  -0.000398   0.004134
    22  C   -0.059478   0.006438  -0.011287  -0.004374  -0.000153  -0.002051
    23  H   -0.010524  -0.000312   0.004683  -0.000078   0.000009   0.000830
    24  H    0.009501  -0.000397   0.000675  -0.000587   0.000057  -0.000033
    25  C   -0.000372   0.000022  -0.000722   0.006942  -0.000400   0.000668
    26  H    0.000014  -0.000004   0.000007  -0.000416   0.000024   0.000000
    27  H   -0.000016   0.000005   0.000009  -0.000172   0.000033  -0.000029
    28  H    0.000136   0.000002   0.000797  -0.000057  -0.000046   0.000061
    29  O    0.002995  -0.000150  -0.001309  -0.002265   0.000195   0.009848
    30  O    0.005252   0.000304   0.011202   0.001212  -0.000015  -0.001041
             13         14         15         16         17         18
     1  C   -0.000239  -0.000013   0.000012  -0.000040   0.000101   0.000001
     2  H    0.000013  -0.000005   0.000000  -0.000014  -0.000012   0.000000
     3  H   -0.000022  -0.000001   0.000002   0.000004   0.000008   0.000000
     4  H    0.000012   0.000002  -0.000001   0.000002  -0.000006   0.000000
     5  C    0.006364   0.000412  -0.000395  -0.000788   0.000260   0.000060
     6  H    0.000459   0.000016  -0.000024  -0.000193   0.000080   0.000017
     7  C   -0.053318  -0.008732   0.007062  -0.004654  -0.001660   0.000785
     8  H    0.000119   0.002675  -0.000333   0.000272  -0.000144  -0.000029
     9  H   -0.009150   0.000576   0.000547   0.003590   0.000842   0.000143
    10  C    0.358514  -0.040046  -0.033952  -0.056743  -0.003764  -0.007766
    11  H   -0.031615  -0.001376  -0.009133   0.007972   0.000228  -0.000390
    12  H   -0.042370   0.007879  -0.001133  -0.007082  -0.001828   0.000143
    13  C    4.987764   0.412709   0.392949   0.312694  -0.023339  -0.060577
    14  H    0.412709   0.586714  -0.031834  -0.043554  -0.001862   0.006905
    15  H    0.392949  -0.031834   0.603705  -0.040474   0.003679  -0.007209
    16  C    0.312694  -0.043554  -0.040474   5.453264   0.226473   0.350289
    17  H   -0.023339  -0.001862   0.003679   0.226473   0.446219  -0.022974
    18  C   -0.060577   0.006905  -0.007209   0.350289  -0.022974   4.846828
    19  H   -0.007584  -0.000015   0.006270  -0.039396   0.005032   0.390473
    20  H    0.008582  -0.000426  -0.000130  -0.031424  -0.005848   0.403269
    21  H   -0.004070  -0.000017  -0.000854  -0.031687  -0.004211   0.403938
    22  C    0.000926  -0.000020  -0.000023  -0.000925   0.004309  -0.000108
    23  H    0.000017  -0.000024  -0.000005  -0.000276   0.001833   0.000019
    24  H   -0.000026  -0.000004  -0.000002   0.000096  -0.000492  -0.000004
    25  C   -0.059388  -0.005152  -0.001724   0.356985  -0.023784  -0.057959
    26  H    0.008607   0.000382  -0.000708  -0.033831  -0.006273  -0.005375
    27  H   -0.005780   0.000011   0.003679  -0.038170   0.005071  -0.004609
    28  H   -0.006902   0.003676  -0.000366  -0.034349  -0.004274   0.007872
    29  O   -0.001612  -0.000044  -0.000049   0.004649  -0.031016   0.001653
    30  O   -0.002511  -0.000185  -0.000294  -0.076684   0.135362   0.003960
[...]
 09,-0.00020084,0.00033286,-0.00008584,0.00044453,-0.00010304,-0.000003
 23,-0.00007183,-0.00006337,0.00011616,-0.00013987,0.00010159,0.0000062
 8,-0.00003739,0.00004843,0.00004398,-0.00003233,-0.00014018,0.00008487
 ,-0.00000586,-0.00049933,-0.00065770,-0.00009081,0.00059736,-0.0000708
 2,-0.00022614,0.00014512,0.00018405,0.00000101,0.00003170,-0.00000767,
 0.00006307,-0.00004258,0.00002929,-0.00001926,-0.00000443,-0.00002999,
 0.00002451,-0.09283743,-0.12752615,0.07741427,0.00570257,0.00515877,-0
 .00406245,0.09449288,0.13851148,0.00013394,0.00040946,-0.00017397,0.00
 010015,0.00001800,0.00008273,-0.00026327,-0.00007894,-0.00002376,-0.00
 041826,0.00018828,0.00016379,-0.00234349,-0.00567463,0.00280435,-0.000
 74349,0.00026854,0.00095457,0.00041007,-0.00106790,0.00070559,-0.00019
 482,-0.00002191,0.00032710,-0.00031359,-0.00017084,0.00036835,-0.00009
 126,0.00033116,0.00000659,0.00010437,0.00002149,0.00008232,-0.00002177
 ,-0.00003789,-0.00002471,-0.00004817,-0.00002004,-0.00003625,0.0000057
 5,-0.00001970,-0.00000593,0.00002629,-0.00003380,0.00000195,0.00017383
 ,0.00019727,0.00012131,-0.00043804,-0.00016666,0.00034158,0.00000230,-
 0.00002230,0.00003864,-0.00000515,0.00000808,-0.00002425,-0.00000168,-
 0.00000078,-0.00000086,-0.00000642,-0.00000285,-0.00002762,0.08949668,
 0.07567713,-0.12556978,0.01921026,0.01715915,-0.01315197,-0.09399710,-
 0.08179926,0.12540646,0.00004561,0.00026861,0.00009484,-0.00000290,-0.
 00003297,-0.00001980,-0.00010241,0.00007416,-0.00003629,0.00004233,-0.
 00001659,-0.00000569,-0.00025238,-0.00028737,-0.00038731,0.00004729,0.
 00004183,0.00000366,0.00004816,-0.00001380,0.00029076,0.00002759,0.000
 12071,-0.00002165,-0.00009778,-0.00022089,-0.00000836,-0.00052383,0.00
 174138,0.00065688,-0.00045435,0.00019330,0.00013616,-0.00002250,-0.000
 03625,-0.00023585,-0.00735713,0.00359765,0.01030961,0.00033452,-0.0004
 6487,0.00080195,-0.00028502,-0.00014168,-0.00042206,-0.10006106,0.0218
 1439,0.05884165,-0.02121618,-0.01286595,0.00914109,0.01109469,-0.00139
 597,-0.01181440,0.00041850,0.00008943,0.00010616,-0.00024037,-0.000031
 61,-0.00026902,-0.00089904,0.00168134,-0.00412555,0.00156121,-0.000730
 68,0.00070604,-0.00008177,-0.00002462,-0.00016087,-0.00030197,0.000135
 56,-0.00008230,0.49872293,0.00010659,0.00040381,0.00004980,0.00000613,
 -0.00003296,0.00000752,-0.00014165,0.00008852,-0.00004804,0.00010999,-
 0.00001206,0.00001007,-0.00024547,-0.00035881,-0.00018199,-0.00002992,
 -0.00000171,0.00007923,-0.00022192,-0.00012275,-0.00044314,0.00003480,
 0.00017709,0.00006537,0.00009095,-0.00006638,0.00028154,-0.00017613,-0
 .00558814,-0.00125368,0.00190990,0.00013393,-0.00068548,-0.00012706,0.
 00007866,-0.00027105,0.02339227,-0.00246398,-0.02196882,0.00024382,0.0
 0136076,-0.00153658,-0.00057771,-0.00057577,-0.00044244,0.01763060,-0.
 07327089,-0.00410580,-0.01357918,-0.00769414,0.00513165,-0.00636683,0.
 00277813,0.00829373,0.00018675,0.00037360,-0.00000100,-0.00078650,0.00
 021875,0.00066623,0.00120187,-0.00048167,0.00249912,0.00191634,-0.0008
 1850,0.00067727,-0.00010882,0.00003638,-0.00018486,-0.00032777,0.00017
 207,-0.00006981,-0.02076785,0.55358947,0.00005075,0.00019004,0.0000824
 0,-0.00000653,-0.00002488,-0.00001957,-0.00007189,0.00005315,-0.000028
 20,0.00002704,-0.00001820,-0.00000485,-0.00017982,-0.00026933,-0.00030
 520,0.00002444,0.00004709,0.00001305,-0.00002157,0.00008782,0.00019264
 ,0.00000565,0.00011586,0.00005953,-0.00002025,-0.00017717,0.00010870,-
 0.00111598,0.00016173,0.00019603,-0.00011796,0.00017421,0.00007742,-0.
 00016639,-0.00005441,-0.00009412,0.00624967,-0.00336751,-0.00208563,-0
 .00089658,0.00153955,0.00066926,-0.00047085,0.00122134,0.00014592,0.05
 099487,-0.00911569,-0.15391028,0.00218565,0.00064528,-0.00177402,0.017
 05079,0.00083008,-0.02999203,0.00096872,-0.00040026,0.00191508,0.00056
 099,-0.00084258,0.00128147,-0.00224208,0.00184738,-0.00337393,0.000980
 49,-0.00036294,0.00056879,-0.00005822,-0.00000917,-0.00011590,-0.00024
 247,0.00007828,-0.00005390,0.04862712,-0.01371553,0.50087119,-0.000014
 95,-0.00006567,0.00000536,0.00000046,0.00000894,-0.00000648,0.00002195
 ,-0.00001609,0.00000480,-0.00003023,-0.00000244,-0.00000087,0.00004672
 ,0.00007329,0.00000068,-0.00000240,-0.00001183,-0.00000575,0.00005861,
 -0.00004843,-0.00000137,0.00000032,-0.00002523,-0.00000774,-0.00001870
 ,0.00005000,-0.00001681,0.00009053,0.00091309,0.00039660,-0.00035378,-
 0.00002802,0.00012392,-0.00001547,-0.00001082,0.00005091,-0.00086362,-
 0.00022276,0.00306470,0.00001482,-0.00051041,0.00010939,-0.00024892,0.
 00053569,0.00051638,-0.00826604,0.01879740,0.00185750,0.00032915,0.001
 36158,0.00022716,0.00009545,-0.00027142,-0.00094681,0.00002588,-0.0001
 5492,-0.00013857,0.00052319,-0.00035621,0.00035576,-0.00012820,-0.0001
 5895,-0.00019170,-0.00018807,0.00021386,-0.00013805,-0.00000722,-0.000
 01607,0.00000764,0.00006801,-0.00005431,0.00001513,-0.06797321,0.07356
 058,0.00583109,0.07354051,0.00000186,0.00000781,-0.00002376,-0.0000030
 3,-0.00000314,0.00000804,0.00000092,-0.00000499,0.00000459,0.00002396,
 0.00001050,-0.00000028,0.00002842,-0.00002725,0.00006764,-0.00000104,0
 .00000510,-0.00000554,-0.00000012,0.00005959,-0.00002469,0.00001012,-0
 .00000624,0.00000608,-0.00000870,-0.00002392,-0.00001274,-0.00038870,-
 0.00029391,-0.00007686,0.00013931,0.00002811,-0.00006559,0.00009946,0.
 00002634,-0.00007548,0.00055099,0.00128993,-0.00032287,-0.00026450,0.0
 0035970,-0.00011650,-0.00011221,0.00001328,-0.00007987,0.00094716,-0.0
 0270210,-0.00033111,0.00010706,0.00004389,-0.00002140,-0.00033577,0.00
 029709,0.00058535,0.00002683,-0.00009756,-0.00004855,-0.00017161,0.000
 58635,-0.00048422,-0.00006514,0.00033780,0.00002907,-0.00013424,-0.000
 08597,-0.00005609,0.00001105,0.00000069,0.00002058,0.00001571,0.000021
 14,-0.00000817,0.07519777,-0.28155723,-0.02271526,-0.08260619,0.305509
 66,0.00001046,0.00002718,-0.00001082,0.00000129,0.00000105,0.00000484,
 -0.00000594,0.00000070,-0.00000277,0.00001834,0.00000277,0.00000348,0.
 00001912,-0.00001107,0.00005682,-0.00001553,-0.00000901,0.00001289,-0.
 00002830,-0.00006753,-0.00020861,0.00002142,0.00000766,0.00001921,-0.0
 0001126,0.00005750,0.00006793,0.00007171,-0.00145864,-0.00003053,0.000
 48746,0.00000265,-0.00015346,-0.00008273,0.00005495,0.00002977,0.00317
 700,0.00135618,-0.00368642,0.00009653,-0.00003218,0.00027857,-0.000128
 10,-0.00017847,0.00006593,0.00763597,-0.02630580,-0.00194130,-0.000350
 03,-0.00075012,0.00010941,-0.00005042,-0.00115460,0.00107179,-0.000001
 54,0.00004773,-0.00007966,-0.00005376,0.00068530,-0.00041684,-0.000034
 02,0.00028861,0.00041201,0.00000086,-0.00007112,0.00003503,-0.00000596
 ,0.00000881,0.00000044,-0.00001198,0.00001720,-0.00000520,0.00607947,-
 0.02165510,-0.05134909,-0.01067936,0.02537718,0.05296123,0.00004121,0.
 00013480,0.00003478,0.00000511,-0.00001204,-0.00000325,-0.00005132,0.0
 0003949,-0.00001702,0.00001859,-0.00001368,0.00000307,-0.00008497,-0.0
 0012847,-0.00011105,-0.00000629,0.00000488,0.00003338,0.00005210,-0.00
 004292,-0.00016810,-0.00001899,0.00007556,0.00002476,0.00003446,-0.000
 05522,0.00010349,-0.00019591,0.00004884,0.00005105,0.00000244,0.000099
 59,0.00000071,0.00012937,-0.00002678,-0.00015968,0.00190431,-0.0003704
 7,0.00013092,-0.00035814,0.00026212,-0.00026681,-0.00029689,0.00063860
 ,0.00045202,-0.01853894,-0.00951628,0.00437746,-0.00117431,0.00043476,
 0.00202021,0.00041625,0.00056710,-0.00108154,0.00068729,-0.00007110,0.
 00075992,0.00002926,0.00004834,-0.00003081,0.00014528,0.00027871,0.000
 09465,0.00070111,-0.00015169,0.00024498,-0.00003897,0.00001075,-0.0000
 7314,-0.00011216,0.00003617,-0.00001913,-0.20386879,-0.11688219,-0.016
 28673,0.00839170,0.00538591,0.00032499,0.22571270,-0.00000127,-0.00002
 125,0.00000008,0.00000191,0.00000087,-0.00000021,0.00000583,0.00000114
 ,0.00000163,-0.00000973,-0.00000497,0.00000077,0.00003668,0.00000810,-
 0.00000363,-0.00000301,0.00000695,0.00000219,0.00002440,0.00001401,0.0
 0001734,-0.00000424,0.00000034,-0.00000098,-0.00000662,0.00000113,0.00
 000351,-0.00003119,0.00025380,0.00015191,-0.00008749,0.00000336,0.0000
 4001,0.00003333,-0.00003741,0.00001504,-0.00050875,0.00016202,-0.00006
 489,0.00001467,0.00001527,0.00016400,0.00000127,0.00015614,-0.00000261
 ,0.00192800,0.00166169,0.00195046,0.00101086,0.00151408,0.00031904,-0.
 00001622,0.00012909,-0.00007549,0.00009248,0.00005230,0.00040962,-0.00
 013523,-0.00002645,-0.00010292,0.00018336,0.00006995,0.00017972,-0.000
 10318,-0.00000870,-0.00001032,0.00000953,0.00000159,0.00000375,-0.0000
 0167,-0.00000544,-0.00000064,-0.11310926,-0.12618035,-0.01045502,-0.02
 558732,-0.01769218,-0.00222441,0.12877475,0.13556721,-0.00003110,-0.00
 013514,-0.00004229,0.00000313,0.00001180,0.00000853,0.00004812,-0.0000
 3165,0.00002011,-0.00002494,0.00000693,0.00000088,0.00011326,0.0001623
 7,0.00015035,-0.00001383,-0.00001479,-0.00001330,-0.00000105,-0.000033
 38,0.00002113,-0.00000487,-0.00005444,-0.00001048,0.00003323,0.0000517
 3,-0.00006807,0.00004133,0.00027946,-0.00014860,-0.00008016,-0.0000840
 3,0.00005223,0.00003383,-0.00000513,0.00010628,-0.00138248,0.00040982,
 0.00040709,-0.00005167,-0.00020241,0.00008522,0.00007982,-0.00049825,-
 0.00018816,0.02282940,0.01471304,-0.00230156,0.00311437,0.00145662,-0.
 00140100,-0.00013190,-0.00038075,0.00187068,-0.00054446,-0.00023398,-0
 .00059104,0.00014373,-0.00003682,-0.00004552,-0.00023536,-0.00037162,0
 .00018945,-0.00069703,0.00024808,-0.00032400,0.00005624,0.00000634,0.0
 0007931,0.00013303,-0.00005003,0.00003325,-0.01043597,-0.00667009,-0.0
 4340260,-0.00240731,-0.00129520,-0.00091314,0.01124052,0.00987487,0.04
 771987,-0.00000689,-0.00001233,-0.00001341,-0.00000855,0.00000215,0.00
 000191,0.00000805,-0.00001050,0.00000172,0.00000588,0.00000655,-0.0000
 0035,0.00000799,-0.00001126,-0.00000055,0.00002277,0.00000585,-0.00001
 637,-0.00001486,0.00007640,0.00012363,0.00002065,-0.00003486,-0.000034
 78,-0.00011780,0.00000362,-0.00003681,0.00011946,-0.00016606,0.0000662
 1,0.00004197,-0.00003009,-0.00002558,0.00000614,-0.00000074,0.00003104
 ,0.00043810,-0.00062456,-0.00003818,0.00023231,-0.00005636,-0.00017955
 ,0.00003041,-0.00009919,-0.00006594,0.00944849,-0.00605265,0.01674084,
 0.00099361,0.00045663,0.00040870,-0.00191956,0.00062986,0.00283209,0.0
 0015008,0.00014869,0.00026581,-0.00013219,-0.00006366,-0.00006555,0.00
 050187,-0.00029374,0.00101539,-0.00011904,0.00006792,-0.00004876,-0.00
 000707,-0.00000764,0.00001301,0.00003877,-0.00000723,-0.00000553,-0.11
 403009,0.03706597,-0.11046850,-0.00530854,0.00129763,-0.00655795,-0.01
 371380,0.00757151,-0.02126875,0.12339604,-0.00000834,-0.00002654,0.000
 00925,-0.00000469,0.00000633,-0.00000812,0.00001145,-0.00001056,-0.000
 00159,-0.00001143,-0.00000007,-0.00000080,0.00001170,0.00001786,-0.000
 00441,0.00000329,-0.00000826,-0.00001160,-0.00001586,0.00001821,0.0000
 6289,0.00001834,-0.00002738,-0.00001869,-0.00002107,0.00007820,-0.0000
 1942,0.00004874,-0.00001377,0.00017715,-0.00004378,0.00000868,-0.00000
 524,-0.00007714,0.00002071,0.00001974,-0.00087471,0.00032779,-0.001311
 88,0.00019806,0.00005982,0.00006897,0.00015415,0.00002292,0.00002463,-
 0.00317517,-0.00077070,-0.00135856,0.00040539,0.00026258,0.00044161,0.
 00016323,0.00044766,-0.00043892,0.00024340,-0.00000674,0.00024162,-0.0
 0006078,0.00041994,-0.00029900,0.00008390,0.00056894,0.00008832,-0.000
 11740,0.00011902,0.00001038,-0.00001807,-0.00001370,0.00000066,0.00002
 826,-0.00002339,-0.00000265,0.03705191,-0.06544545,0.05462154,0.015408
 28,-0.00645952,0.02542919,-0.00977439,0.00477438,-0.01605589,-0.039559
 65,0.06583480,-0.00000281,-0.00003358,-0.00000773,0.00001158,0.0000078
 5,0.00000852,0.00001195,-0.00000452,0.00000285,-0.00001820,-0.00000742
 ,0.00000298,0.00006639,0.00010493,0.00006773,-0.00004248,-0.00002183,0
 .00003371,0.00004290,-0.00022729,-0.00026816,0.00001369,0.00000520,0.0
 0003807,0.00010842,0.00008735,0.00010010,0.00014161,-0.00004443,0.0002
 5869,0.00001013,0.00000263,0.00004487,-0.00019824,-0.00002060,0.000150
 99,-0.00047020,0.00162779,0.00052107,0.00033296,-0.00126518,0.00060601
 ,-0.00012215,0.00010248,0.00039143,-0.01372226,0.00784522,-0.02223404,
 -0.00077752,-0.00038292,-0.00025315,0.00480359,-0.00149005,-0.00338549
 ,-0.00001596,-0.00022835,0.00037940,0.00004966,-0.00002185,0.00031310,
 -0.00077293,0.00064210,-0.00143559,-0.00012893,0.00008960,-0.00009245,
 0.00003167,0.00001101,0.00002200,0.00002190,-0.00002412,0.00001257,-0.
 10864614,0.05464106,-0.21991864,0.00236351,-0.00039568,0.00357535,-0.0
 0118283,0.00003053,-0.00147205,0.11757837,-0.06137607,0.24206115,0.001
 93847,0.00554388,0.00212614,-0.00001651,-0.00029468,-0.00019198,-0.001
 55986,0.00030919,-0.00096194,0.00069337,-0.00055378,0.00010652,-0.0181
 0335,0.01082626,-0.00891576,0.00064923,-0.00074783,0.00108385,-0.00116
 073,-0.00101579,0.00023692,0.00047151,0.00037188,-0.00005990,-0.000110
 90,-0.00020495,-0.00024452,-0.00058502,-0.00036741,0.00004912,0.000529
 33,-0.00036522,0.00013919,-0.00003420,-0.00001965,0.00032823,-0.004580
 39,-0.00141254,-0.00204029,0.00003915,-0.00055200,0.00016116,0.0008431
 5,-0.00217711,0.00014843,0.02226266,0.01539612,0.00442355,-0.03622279,
 -0.02376497,0.01165389,-0.00258342,-0.00361859,0.00066283,-0.00084688,
 0.00050888,-0.00151511,-0.00016500,0.00046263,0.00012806,0.00017956,0.
 00016363,-0.00047092,-0.13144040,0.03295091,-0.06376922,-0.02329263,0.
 00350515,-0.01105266,-0.03277641,0.00651618,-0.00965146,-0.00330162,-0
 .00366506,-0.00236823,0.00034032,0.00038943,0.00000859,-0.00108337,0.0
 0034483,0.00146827,0.00024550,0.00009377,0.00030478,0.33743313,0.00028
 096,-0.00822082,-0.00277472,-0.00016933,0.00001060,0.00021961,0.002529
 20,-0.00032976,0.00118493,0.00020355,0.00032579,-0.00022170,0.03371675
 ,-0.00317221,0.01565634,-0.00070713,0.00153856,-0.00024207,-0.00036920
 ,0.00347161,-0.00181687,0.00024337,0.00064007,0.00010172,-0.00037461,0
 .00002531,0.00056281,-0.00009151,-0.00130405,-0.00231739,-0.00039495,-
 0.00081759,0.00066075,0.00031753,-0.00172179,0.00171245,0.00052834,-0.
 00001673,0.00055422,-0.00021893,0.00004290,0.00008914,-0.00026160,0.00
 024477,-0.00003390,-0.00452185,-0.00569560,-0.00010908,-0.00150558,0.0
 0865432,0.01533181,0.00152098,0.00112550,-0.00017094,0.00004862,-0.000
 08754,0.00049520,-0.00019788,0.00014076,-0.00008822,-0.00005825,-0.000
 04914,0.00021524,0.02616161,-0.06737603,0.02794823,-0.00119126,0.00307
 636,0.00091748,-0.00805024,0.00648440,-0.00402525,0.00034003,0.0000131
 5,0.00009635,-0.00020771,0.00013686,0.00008165,0.00017105,0.00016457,-
 0.00013882,-0.00000069,-0.00001680,-0.00015038,-0.05084335,0.08417529,
 0.00012588,-0.00024071,0.00081734,0.00047848,-0.00035536,0.00061991,-0
 .00015877,-0.00019962,0.00056884,-0.00043315,-0.00015536,-0.00008957,-
 0.00225387,0.00657594,0.00279614,0.00000870,0.00121404,0.00061688,-0.0
 0023877,-0.00030217,0.00099329,0.00004619,-0.00070631,-0.00011253,0.00
 026652,0.00037471,-0.00068295,0.00115809,0.00013454,-0.00258771,-0.000
 67031,-0.00055656,0.00058888,0.00027082,-0.00056744,0.00155247,0.00463
 097,0.00165306,0.00220827,-0.00023664,0.00036065,0.00004451,-0.0006982
 2,0.00195923,-0.00019398,-0.02483578,-0.01857226,-0.00548290,0.0326971
 4,0.03879878,0.00361931,0.00318630,0.00361359,-0.00077349,0.00076784,-
 0.00071513,0.00168050,0.00027440,-0.00048937,0.00006673,-0.00010737,0.
 00006905,0.00075947,-0.03388252,0.02264551,-0.11861341,-0.03641014,0.0
 1233999,-0.01502665,0.01765112,-0.00550221,0.00739199,0.00311236,0.003
 61903,0.00184644,0.00004820,-0.00036829,-0.00021241,0.00129276,-0.0003
 5172,-0.00134697,-0.00019552,-0.00019589,-0.00008834,-0.02142791,-0.05
 005944,0.27706332,-0.00021857,-0.00178989,-0.00037723,0.00000548,0.000
 16975,-0.00000062,0.00070770,-0.00016593,0.00007154,-0.00002254,0.0001
 1489,0.00003377,0.00192652,0.00035100,0.00207276,-0.00029609,0.0002110
 1,-0.00021290,0.00085146,0.00136109,-0.00106219,-0.00045081,0.00003268
 ,0.00053245,-0.00015241,0.00098411,0.00083041,0.00199877,-0.00020852,-
 0.00267134,-0.00054097,-0.00022589,0.00041430,0.00028070,-0.00007122,0
 .00100274,0.00640090,0.00426760,0.00391547,-0.00015569,0.00048099,-0.0
 0001371,-0.00087941,0.00223942,-0.00083445,-0.08139923,-0.07269792,-0.
 01740862,0.04947680,0.05192009,0.00008423,0.00725721,0.00581595,0.0015
 7512,0.00087242,-0.00116014,0.00217941,0.00062590,-0.00060181,-0.00004
 705,-0.00015050,0.00021649,0.00044475,-0.05182869,-0.00031848,0.033929
 08,0.00597395,-0.00049000,0.00508071,-0.00516421,0.00449667,-0.0010338
 4,0.00872957,0.00654750,0.00117674,-0.00012828,-0.00014234,0.00006367,
 0.00127166,-0.00042825,-0.00202739,-0.00032970,-0.00016138,0.00020753,
 -0.10776194,0.00310208,0.05553316,0.16310000,-0.00040290,-0.00124172,0
 .00002856,0.00007043,0.00001147,0.00005685,0.00030637,-0.00020769,0.00
 024210,-0.00002094,0.00006004,-0.00005907,0.00276009,0.00151769,0.0014
 4322,-0.00010222,0.00033125,-0.00024557,0.00079247,-0.00171862,0.00262
 961,0.00040102,-0.00064762,-0.00074144,0.00101573,-0.00092326,-0.00153
 709,0.00138957,-0.00019788,-0.00031092,-0.00031220,0.00019660,-0.00011
 091,0.00021842,-0.00014808,-0.00023312,0.00229042,0.00432776,0.0022359
 3,-0.00002194,0.00022081,-0.00008278,-0.00038694,0.00062074,-0.0006752
 8,-0.07424604,-0.06495641,-0.01434160,0.04903996,0.00922451,-0.0223324
 0,0.00669165,0.00334618,0.00260845,0.00009078,-0.00030396,0.00082369,-
 0.00066725,0.00056010,-0.00043104,-0.00020903,-0.00000438,-0.00039612,
 -0.00271760,-0.00379916,-0.00999076,0.00068170,0.00067022,0.00058134,-
 0.00198876,0.00068122,-0.00105455,0.00779227,0.00524645,-0.00018174,-0
 .00056793,0.00022017,0.00047175,0.00003380,-0.00058127,-0.00092861,-0.
 00030155,-0.00016494,0.00049654,0.01222021,-0.02146277,-0.01402028,-0.
 00384957,0.06912255,0.00025935,0.00106600,0.00038235,0.00005849,-0.000
 12882,-0.00004079,-0.00040821,0.00009719,-0.00011743,0.00010721,-0.000
 12334,-0.00001060,0.00009742,-0.00064718,-0.00105217,-0.00009974,0.000
 30091,0.00037361,-0.00024749,-0.00013727,-0.00135973,-0.00001706,0.000
 56434,0.00037216,-0.00050056,-0.00045393,0.00124430,-0.00153933,-0.000
 08988,0.00144678,0.00069376,0.00034782,-0.00024996,-0.00005161,-0.0000
 3881,-0.00093238,-0.00470427,-0.00124391,-0.00195533,0.00017824,-0.000
 57874,0.00012264,0.00082034,-0.00200488,0.00013850,0.01374141,0.009327
 64,0.00686045,-0.02058636,-0.04520137,-0.03590617,-0.00375212,-0.00434
 266,0.00163044,-0.00055176,0.00056841,-0.00169079,0.00027168,0.0002262
 2,-0.00001070,0.00028179,0.00017108,-0.00053359,0.01243620,-0.00633780
 ,0.00958013,-0.00429710,-0.00008006,0.00287924,-0.00385151,-0.00131959
 ,0.00025507,-0.00223648,-0.00278819,-0.00159992,-0.00043789,0.00042961
 ,0.00030553,-0.00178961,0.00012836,0.00152443,-0.00005664,-0.00008726,
 0.00056505,0.09964037,-0.00367914,-0.15802337,-0.08345852,0.05605523,0
 .17580224\\0.00000016,0.00000284,0.00000029,0.00000027,0.00000205,-0.0
 0000070,0.00000109,0.00000292,-0.00000112,-0.00000013,0.00000302,-0.00
 000056,-0.00000068,0.00000025,-0.00000107,0.00000072,0.00000182,-0.000
 00020,0.00000213,-0.00000085,-0.00000117,0.00000050,0.00000016,-0.0000
 0190,0.00000238,-0.00000117,-0.00000154,-0.00000328,0.,0.00000040,0.00
 000263,0.00000068,-0.00000074,-0.00000108,0.00000018,-0.00000062,0.000
 00350,-0.00000054,0.00000308,0.00000084,-0.00000290,-0.00000183,0.0000
 0134,-0.00000053,-0.00000087,0.00000236,-0.00000203,0.00000079,-0.0000
 0159,0.00000158,0.00000047,-0.00000215,-0.00000195,0.00000022,-0.00000
 047,-0.00000135,0.00000167,-0.00000063,-0.00000147,0.00000098,0.000000
 93,-0.00000210,-0.00000096,-0.00000073,0.00000208,0.00000130,-0.000000
 58,0.00000228,0.00000022,-0.00000250,0.00000213,-0.00000033,0.00000024
 ,-0.00000304,0.00000088,-0.00000050,-0.00000249,0.00000071,-0.00000005
 ,-0.00000303,0.00000007,0.00000013,-0.00000276,0.00000013,0.00000093,0
 .00000303,0.00000225,-0.00000578,0.00000119,0.00000017\\\@
 Job cpu time:  0 days 13 hours 24 minutes 38.0 seconds.
 File lengths (MBytes):  RWF=  77048 Int=      0 D2E=      0 Chk=     26 Scr=      1
 Normal termination of Gaussian 09 at Mon Feb 17 20:23:16 2014.
