 Entering Gaussian System, Link 0=g09
 Initial command:
 /usr/caen/gaussian-09revc/g09/l1.exe /scratch/avioli_flux/hetanjin/scratch/Gau-1087.inp -scrdir=/scratch/avioli_flux/hetanjin/scratch/
 Entering Link 1 = /usr/caen/gaussian-09revc/g09/l1.exe PID=      1088.
  
 Copyright (c) 1988,1990,1992,1993,1995,1998,2003,2009,2011,
            Gaussian, Inc.  All Rights Reserved.
  
 This is part of the Gaussian(R) 09 program.  It is based on
 the Gaussian(R) 03 system (copyright 2003, Gaussian, Inc.),
 the Gaussian(R) 98 system (copyright 1998, Gaussian, Inc.),
 the Gaussian(R) 94 system (copyright 1995, Gaussian, Inc.),
 the Gaussian 92(TM) system (copyright 1992, Gaussian, Inc.),
 the Gaussian 90(TM) system (copyright 1990, Gaussian, Inc.),
 the Gaussian 88(TM) system (copyright 1988, Gaussian, Inc.),
 the Gaussian 86(TM) system (copyright 1986, Carnegie Mellon
 University), and the Gaussian 82(TM) system (copyright 1983,
 Carnegie Mellon University). Gaussian is a federally registered
 trademark of Gaussian, Inc.
  
 This software contains proprietary and confidential information,
 including trade secrets, belonging to Gaussian, Inc.
  
 This software is provided under written license and may be
 used, copied, transmitted, or stored only in accord with that
 written license.
  
 The following legend is applicable only to US Government
 contracts under FAR:
  
                    RESTRICTED RIGHTS LEGEND
  
 Use, reproduction and disclosure by the US Government is
 subject to restrictions as set forth in subparagraphs (a)
 and (c) of the Commercial Computer Software - Restricted
 Rights clause in FAR 52.227-19.
  
 Gaussian, Inc.
 340 Quinnipiac St., Bldg. 40, Wallingford CT 06492
  
  
 ---------------------------------------------------------------
 Warning -- This program may not be used in any manner that
 competes with the business of Gaussian, Inc. or will provide
 assistance to any competitor of Gaussian, Inc.  The licensee
 of this program is prohibited from giving any competitor of
 Gaussian, Inc. access to this program.  By using this program,
 the user acknowledges that Gaussian, Inc. is engaged in the
 business of creating and licensing software in the field of
 computational chemistry and represents and warrants to the
 licensee that it is not a competitor of Gaussian, Inc. and that
 it will not use this program in any manner prohibited above.
 ---------------------------------------------------------------
  

 Cite this work as:
 Gaussian 09, Revision C.01,
 M. J. Frisch, G. W. Trucks, H. B. Schlegel, G. E. Scuseria, 
 M. A. Robb, J. R. Cheeseman, G. Scalmani, V. Barone, B. Mennucci, 
 G. A. Petersson, H. Nakatsuji, M. Caricato, X. Li, H. P. Hratchian, 
 A. F. Izmaylov, J. Bloino, G. Zheng, J. L. Sonnenberg, M. Hada, 
 M. Ehara, K. Toyota, R. Fukuda, J. Hasegawa, M. Ishida, T. Nakajima, 
 Y. Honda, O. Kitao, H. Nakai, T. Vreven, J. A. Montgomery, Jr., 
 J. E. Peralta, F. Ogliaro, M. Bearpark, J. J. Heyd, E. Brothers, 
 K. N. Kudin, V. N. Staroverov, T. Keith, R. Kobayashi, J. Normand, 
 K. Raghavachari, A. Rendell, J. C. Burant, S. S. Iyengar, J. Tomasi, 
 M. Cossi, N. Rega, J. M. Millam, M. Klene, J. E. Knox, J. B. Cross, 
 V. Bakken, C. Adamo, J. Jaramillo, R. Gomperts, R. E. Stratmann, 
 O. Yazyev, A. J. Austin, R. Cammi, C. Pomelli, J. W. Ochterski, 
 R. L. Martin, K. Morokuma, V. G. Zakrzewski, G. A. Voth, 
 P. Salvador, J. J. Dannenberg, S. Dapprich, A. D. Daniels, 
 O. Farkas, J. B. Foresman, J. V. Ortiz, J. Cioslowski, 
 and D. J. Fox, Gaussian, Inc., Wallingford CT, 2010.
 
 ******************************************
 Gaussian 09:  EM64L-G09RevC.01 23-Sep-2011
                25-Feb-2014 
 ******************************************
 %mem=30GB
 %nprocshared=8
 Will use up to    8 processors via shared memory.
 %chk=TS_1_C9H18_1.chk
 -------------------------------
 #p cbs-qb3 opt=(TS,calcfc) freq
 -------------------------------
 1/5=1,10=4,14=-1,18=20,26=3,38=1/1,3;
 2/9=110,12=2,17=6,18=5,40=1/2;
 3/5=4,6=6,7=700,11=2,16=1,25=1,30=1,71=2,74=-5/1,2,3;
 4//1;
 5/5=2,38=5/2;
 8/6=4,10=90,11=11/1;
 11/6=1,8=1,9=11,15=111,16=1/1,2,10;
 10/6=1,7=6,13=1/2;
 6/7=2,8=2,9=2,10=2,28=1/1;
 7/10=1,18=20,25=1/1,2,3,16;
 1/5=1,10=4,14=-1,18=20/3(2);
 2/9=110/2;
 99//99;
 2/9=110/2;
 3/5=4,6=6,7=700,11=2,16=1,25=1,30=1,71=1,74=-5/1,2,3;
 4/5=5,16=3/1;
 5/5=2,38=5/2;
 7//1,2,3,16;
 1/5=1,14=-1,18=20/3(-5);
 2/9=110/2;
 6/7=2,8=2,9=2,10=2,19=2,28=1/1;
 99/9=1/99;
 Leave Link    1 at Tue Feb 25 19:53:23 2014, MaxMem= 4026531840 cpu:       0.4
 (Enter /usr/caen/gaussian-09revc/g09/l101.exe)
 ----------------------------------------------------
 TS_1_C9H18_1 using B3LYP/6-311++g(d,p) to calc. freq
 ----------------------------------------------------
 Charge =  0 Multiplicity = 2
 Symbolic Z-Matrix:
 C                     3.1273   -1.69838  -0.42421 
 H                     3.04637  -2.67729   0.05993 
 H                     3.01608  -1.85527  -1.50066 
 H                     4.13397  -1.314    -0.24352 
 C                     2.0582   -0.74138   0.10884 
 H                     2.20084   0.30257  -0.66376 
 C                     0.61802  -1.19125  -0.19 
 H                     0.46803  -2.17992   0.26426 
 H                     0.53166  -1.34976  -1.27187 
 C                    -0.50354  -0.2497    0.26339 
 H                    -0.50454  -0.16776   1.35685 
 H                    -0.31084   0.75589  -0.12381 
 C                    -1.88652  -0.73306  -0.19374 
 H                    -1.91859  -0.75635  -1.29161 
 H                    -2.02149  -1.77136   0.13513 
 C                    -3.07614   0.09877   0.32198 
 H                    -3.00583   0.13245   1.41825 
 C                    -4.40401  -0.58175  -0.03949 
 H                    -4.52678  -0.64603  -1.1264 
 H                    -5.25668  -0.02265   0.35686 
 H                    -4.45431  -1.59852   0.36158 
 C                     2.35147  -0.00475   1.25563 
 H                     1.5831    0.45072   1.86542 
 H                     3.35693   0.03414   1.65594 
 C                    -3.05304   1.54393  -0.19664 
 H                    -3.91375   2.10603   0.17751 
 H                    -3.09517   1.56384  -1.29161 
 H                    -2.15252   2.08027   0.11178 
 O                     2.70589   1.95551   0.23939 
 O                     2.47324   1.5768   -0.95 
 
 NAtoms=     30 NQM=        0 NQMF=       0 NMMI=     30 NMMIF=      0
                NMic=       0 NMicF=      0.
                    Isotopes and Nuclear Properties:
 (Nuclear quadrupole moments (NQMom) in fm**2, nuclear magnetic moments (NMagM)
  in nuclear magnetons)

  Atom         1           2           3           4           5           6           7           8           9          10
 IAtWgt=          12           1           1           1          12           1          12           1           1          12
 AtmWgt=  12.0000000   1.0078250   1.0078250   1.0078250  12.0000000   1.0078250  12.0000000   1.0078250   1.0078250  12.0000000
 NucSpn=           0           1           1           1           0           1           0           1           1           0
 AtZEff=   0.0000000   0.0000000   0.0000000   0.0000000   0.0000000   0.0000000   0.0000000   0.0000000   0.0000000   0.0000000
 NQMom=    0.0000000   0.0000000   0.0000000   0.0000000   0.0000000   0.0000000   0.0000000   0.0000000   0.0000000   0.0000000
 NMagM=    0.0000000   2.7928460   2.7928460   2.7928460   0.0000000   2.7928460   0.0000000   2.7928460   2.7928460   0.0000000

  Atom        11          12          13          14          15          16          17          18          19          20
 IAtWgt=           1           1          12           1           1          12           1          12           1           1
 AtmWgt=   1.0078250   1.0078250  12.0000000   1.0078250   1.0078250  12.0000000   1.0078250  12.0000000   1.0078250   1.0078250
 NucSpn=           1           1           0           1           1           0           1           0           1           1
 AtZEff=   0.0000000   0.0000000   0.0000000   0.0000000   0.0000000   0.0000000   0.0000000   0.0000000   0.0000000   0.0000000
 NQMom=    0.0000000   0.0000000   0.0000000   0.0000000   0.0000000   0.0000000   0.0000000   0.0000000   0.0000000   0.0000000
 NMagM=    2.7928460   2.7928460   0.0000000   2.7928460   2.7928460   0.0000000   2.7928460   0.0000000   2.7928460   2.7928460

  Atom        21          22          23          24          25          26          27          28          29          30
 IAtWgt=           1          12           1           1          12           1           1           1          16          16
 AtmWgt=   1.0078250  12.0000000   1.0078250   1.0078250  12.0000000   1.0078250   1.0078250   1.0078250  15.9949146  15.9949146
 NucSpn=           1           0           1           1           0           1           1           1           0           0
 AtZEff=   0.0000000   0.0000000   0.0000000   0.0000000   0.0000000   0.0000000   0.0000000   0.0000000   0.0000000   0.0000000
 NQMom=    0.0000000   0.0000000   0.0000000   0.0000000   0.0000000   0.0000000   0.0000000   0.0000000   0.0000000   0.0000000
 NMagM=    2.7928460   0.0000000   2.7928460   2.7928460   0.0000000   2.7928460   2.7928460   2.7928460   0.0000000   0.0000000
 Leave Link  101 at Tue Feb 25 19:53:23 2014, MaxMem= 4026531840 cpu:       1.8
 (Enter /usr/caen/gaussian-09revc/g09/l103.exe)

 GradGradGradGradGradGradGradGradGradGradGradGradGradGradGradGradGradGrad
 Berny optimization.
 Initialization pass.
                           ----------------------------
                           !    Initial Parameters    !
                           ! (Angstroms and Degrees)  !
 --------------------------                            --------------------------
 ! Name  Definition              Value          Derivative Info.                !
 --------------------------------------------------------------------------------
 ! R1    R(1,2)                  1.0951         calculate D2E/DX2 analytically  !
 ! R2    R(1,3)                  1.0935         calculate D2E/DX2 analytically  !
 ! R3    R(1,4)                  1.0926         calculate D2E/DX2 analytically  !
 ! R4    R(1,5)                  1.5307         calculate D2E/DX2 analytically  !
 ! R5    R(5,6)                  1.3066         calculate D2E/DX2 analytically  !
 ! R6    R(5,7)                  1.5381         calculate D2E/DX2 analytically  !
 ! R7    R(5,22)                 1.3942         calculate D2E/DX2 analytically  !
 ! R8    R(6,30)                 1.3341         calculate D2E/DX2 analytically  !
 ! R9    R(7,8)                  1.0983         calculate D2E/DX2 analytically  !
 ! R10   R(7,9)                  1.0968         calculate D2E/DX2 analytically  !
 ! R11   R(7,10)                 1.533          calculate D2E/DX2 analytically  !
 ! R12   R(10,11)                1.0965         calculate D2E/DX2 analytically  !
 ! R13   R(10,12)                1.0947         calculate D2E/DX2 analytically  !
 ! R14   R(10,13)                1.5347         calculate D2E/DX2 analytically  !
 ! R15   R(13,14)                1.0986         calculate D2E/DX2 analytically  !
 ! R16   R(13,15)                1.0975         calculate D2E/DX2 analytically  !
 ! R17   R(13,16)                1.5405         calculate D2E/DX2 analytically  !
 ! R18   R(16,17)                1.099          calculate D2E/DX2 analytically  !
 ! R19   R(16,18)                1.5353         calculate D2E/DX2 analytically  !
 ! R20   R(16,25)                1.5356         calculate D2E/DX2 analytically  !
 ! R21   R(18,19)                1.0957         calculate D2E/DX2 analytically  !
 ! R22   R(18,20)                1.094          calculate D2E/DX2 analytically  !
 ! R23   R(18,21)                1.0942         calculate D2E/DX2 analytically  !
 ! R24   R(22,23)                1.0815         calculate D2E/DX2 analytically  !
 ! R25   R(22,24)                1.0829         calculate D2E/DX2 analytically  !
 ! R26   R(25,26)                1.094          calculate D2E/DX2 analytically  !
 ! R27   R(25,27)                1.096          calculate D2E/DX2 analytically  !
 ! R28   R(25,28)                1.0926         calculate D2E/DX2 analytically  !
 ! R29   R(29,30)                1.2697         calculate D2E/DX2 analytically  !
 ! A1    A(2,1,3)              107.4236         calculate D2E/DX2 analytically  !
 ! A2    A(2,1,4)              108.0271         calculate D2E/DX2 analytically  !
 ! A3    A(2,1,5)              110.6898         calculate D2E/DX2 analytically  !
 ! A4    A(3,1,4)              107.8776         calculate D2E/DX2 analytically  !
 ! A5    A(3,1,5)              111.1906         calculate D2E/DX2 analytically  !
 ! A6    A(4,1,5)              111.4681         calculate D2E/DX2 analytically  !
 ! A7    A(1,5,6)              102.5547         calculate D2E/DX2 analytically  !
 ! A8    A(1,5,7)              113.7946         calculate D2E/DX2 analytically  !
 ! A9    A(1,5,22)             118.0252         calculate D2E/DX2 analytically  !
 ! A10   A(6,5,7)              102.7696         calculate D2E/DX2 analytically  !
 ! A11   A(6,5,22)              92.3653         calculate D2E/DX2 analytically  !
 ! A12   A(7,5,22)             120.7508         calculate D2E/DX2 analytically  !
 ! A13   A(5,6,30)             155.8284         calculate D2E/DX2 analytically  !
 ! A14   A(5,7,8)              108.107          calculate D2E/DX2 analytically  !
 ! A15   A(5,7,9)              107.9166         calculate D2E/DX2 analytically  !
 ! A16   A(5,7,10)             116.6116         calculate D2E/DX2 analytically  !
 ! A17   A(8,7,9)              105.4922         calculate D2E/DX2 analytically  !
 ! A18   A(8,7,10)             109.3075         calculate D2E/DX2 analytically  !
 ! A19   A(9,7,10)             108.8378         calculate D2E/DX2 analytically  !
 ! A20   A(7,10,11)            109.9685         calculate D2E/DX2 analytically  !
 ! A21   A(7,10,12)            109.3184         calculate D2E/DX2 analytically  !
 ! A22   A(7,10,13)            112.1953         calculate D2E/DX2 analytically  !
 ! A23   A(11,10,12)           106.5133         calculate D2E/DX2 analytically  !
 ! A24   A(11,10,13)           108.6478         calculate D2E/DX2 analytically  !
 ! A25   A(12,10,13)           110.0359         calculate D2E/DX2 analytically  !
 ! A26   A(10,13,14)           109.3089         calculate D2E/DX2 analytically  !
 ! A27   A(10,13,15)           108.6352         calculate D2E/DX2 analytically  !
 ! A28   A(10,13,16)           115.2211         calculate D2E/DX2 analytically  !
 ! A29   A(14,13,15)           106.0115         calculate D2E/DX2 analytically  !
 ! A30   A(14,13,16)           108.8722         calculate D2E/DX2 analytically  !
 ! A31   A(15,13,16)           108.3952         calculate D2E/DX2 analytically  !
 ! A32   A(13,16,17)           107.5225         calculate D2E/DX2 analytically  !
 ! A33   A(13,16,18)           110.4719         calculate D2E/DX2 analytically  !
 ! A34   A(13,16,25)           112.5504         calculate D2E/DX2 analytically  !
 ! A35   A(17,16,18)           107.6849         calculate D2E/DX2 analytically  !
 ! A36   A(17,16,25)           107.883          calculate D2E/DX2 analytically  !
 ! A37   A(18,16,25)           110.5273         calculate D2E/DX2 analytically  !
 ! A38   A(16,18,19)           110.8841         calculate D2E/DX2 analytically  !
 ! A39   A(16,18,20)           111.2417         calculate D2E/DX2 analytically  !
 ! A40   A(16,18,21)           111.4297         calculate D2E/DX2 analytically  !
 ! A41   A(19,18,20)           107.5808         calculate D2E/DX2 analytically  !
 ! A42   A(19,18,21)           107.6946         calculate D2E/DX2 analytically  !
 ! A43   A(20,18,21)           107.8357         calculate D2E/DX2 analytically  !
 ! A44   A(5,22,23)            122.4693         calculate D2E/DX2 analytically  !
 ! A45   A(5,22,24)            121.2211         calculate D2E/DX2 analytically  !
 ! A46   A(23,22,24)           115.8544         calculate D2E/DX2 analytically  !
 ! A47   A(16,25,26)           110.8683         calculate D2E/DX2 analytically  !
 ! A48   A(16,25,27)           110.7288         calculate D2E/DX2 analytically  !
 ! A49   A(16,25,28)           112.2751         calculate D2E/DX2 analytically  !
 ! A50   A(26,25,27)           107.585          calculate D2E/DX2 analytically  !
 ! A51   A(26,25,28)           107.4397         calculate D2E/DX2 analytically  !
 ! A52   A(27,25,28)           107.7461         calculate D2E/DX2 analytically  !
 ! A53   A(6,30,29)             96.9674         calculate D2E/DX2 analytically  !
 ! D1    D(2,1,5,6)           -173.3212         calculate D2E/DX2 analytically  !
 ! D2    D(2,1,5,7)            -63.0981         calculate D2E/DX2 analytically  !
 ! D3    D(2,1,5,22)            87.0982         calculate D2E/DX2 analytically  !
 ! D4    D(3,1,5,6)            -54.0            calculate D2E/DX2 analytically  !
 ! D5    D(3,1,5,7)             56.2231         calculate D2E/DX2 analytically  !
 ! D6    D(3,1,5,22)          -153.5806         calculate D2E/DX2 analytically  !
 ! D7    D(4,1,5,6)             66.4148         calculate D2E/DX2 analytically  !
 ! D8    D(4,1,5,7)            176.6379         calculate D2E/DX2 analytically  !
 ! D9    D(4,1,5,22)           -33.1658         calculate D2E/DX2 analytically  !
 ! D10   D(1,5,6,30)          -117.0106         calculate D2E/DX2 analytically  !
 ! D11   D(7,5,6,30)           124.6759         calculate D2E/DX2 analytically  !
 ! D12   D(22,5,6,30)            2.3944         calculate D2E/DX2 analytically  !
 ! D13   D(1,5,7,8)             58.9347         calculate D2E/DX2 analytically  !
 ! D14   D(1,5,7,9)            -54.7101         calculate D2E/DX2 analytically  !
 ! D15   D(1,5,7,10)          -177.4986         calculate D2E/DX2 analytically  !
 ! D16   D(6,5,7,8)            169.0263         calculate D2E/DX2 analytically  !
 ! D17   D(6,5,7,9)             55.3816         calculate D2E/DX2 analytically  !
 ! D18   D(6,5,7,10)           -67.407          calculate D2E/DX2 analytically  !
 ! D19   D(22,5,7,8)           -90.3662         calculate D2E/DX2 analytically  !
 ! D20   D(22,5,7,9)           155.989          calculate D2E/DX2 analytically  !
 ! D21   D(22,5,7,10)           33.2005         calculate D2E/DX2 analytically  !
 ! D22   D(1,5,22,23)         -160.8703         calculate D2E/DX2 analytically  !
 ! D23   D(1,5,22,24)           11.0654         calculate D2E/DX2 analytically  !
 ! D24   D(6,5,22,23)           93.5581         calculate D2E/DX2 analytically  !
 ! D25   D(6,5,22,24)          -94.5062         calculate D2E/DX2 analytically  !
 ! D26   D(7,5,22,23)          -12.8208         calculate D2E/DX2 analytically  !
 ! D27   D(7,5,22,24)          159.115          calculate D2E/DX2 analytically  !
 ! D28   D(5,6,30,29)           -1.7048         calculate D2E/DX2 analytically  !
 ! D29   D(5,7,10,11)          -64.049          calculate D2E/DX2 analytically  !
 ! D30   D(5,7,10,12)           52.5559         calculate D2E/DX2 analytically  !
 ! D31   D(5,7,10,13)          174.9086         calculate D2E/DX2 analytically  !
 ! D32   D(8,7,10,11)           58.8978         calculate D2E/DX2 analytically  !
 ! D33   D(8,7,10,12)          175.5027         calculate D2E/DX2 analytically  !
 ! D34   D(8,7,10,13)          -62.1446         calculate D2E/DX2 analytically  !
 ! D35   D(9,7,10,11)          173.6419         calculate D2E/DX2 analytically  !
 ! D36   D(9,7,10,12)          -69.7532         calculate D2E/DX2 analytically  !
 ! D37   D(9,7,10,13)           52.5995         calculate D2E/DX2 analytically  !
 ! D38   D(7,10,13,14)         -61.8584         calculate D2E/DX2 analytically  !
 ! D39   D(7,10,13,15)          53.3931         calculate D2E/DX2 analytically  !
 ! D40   D(7,10,13,16)         175.1933         calculate D2E/DX2 analytically  !
 ! D41   D(11,10,13,14)        176.3417         calculate D2E/DX2 analytically  !
 ! D42   D(11,10,13,15)        -68.4067         calculate D2E/DX2 analytically  !
 ! D43   D(11,10,13,16)         53.3934         calculate D2E/DX2 analytically  !
 ! D44   D(12,10,13,14)         60.086          calculate D2E/DX2 analytically  !
 ! D45   D(12,10,13,15)        175.3376         calculate D2E/DX2 analytically  !
 ! D46   D(12,10,13,16)        -62.8623         calculate D2E/DX2 analytically  !
 ! D47   D(10,13,16,17)        -55.17           calculate D2E/DX2 analytically  !
 ! D48   D(10,13,16,18)       -172.4223         calculate D2E/DX2 analytically  !
 ! D49   D(10,13,16,25)         63.5011         calculate D2E/DX2 analytically  !
 ! D50   D(14,13,16,17)       -178.3504         calculate D2E/DX2 analytically  !
 ! D51   D(14,13,16,18)         64.3973         calculate D2E/DX2 analytically  !
 ! D52   D(14,13,16,25)        -59.6794         calculate D2E/DX2 analytically  !
 ! D53   D(15,13,16,17)         66.7595         calculate D2E/DX2 analytically  !
 ! D54   D(15,13,16,18)        -50.4928         calculate D2E/DX2 analytically  !
 ! D55   D(15,13,16,25)       -174.5695         calculate D2E/DX2 analytically  !
 ! D56   D(13,16,18,19)        -62.6658         calculate D2E/DX2 analytically  !
 ! D57   D(13,16,18,20)        177.6534         calculate D2E/DX2 analytically  !
 ! D58   D(13,16,18,21)         57.2832         calculate D2E/DX2 analytically  !
 ! D59   D(17,16,18,19)       -179.8179         calculate D2E/DX2 analytically  !
 ! D60   D(17,16,18,20)         60.5013         calculate D2E/DX2 analytically  !
 ! D61   D(17,16,18,21)        -59.8689         calculate D2E/DX2 analytically  !
 ! D62   D(25,16,18,19)         62.566          calculate D2E/DX2 analytically  !
 ! D63   D(25,16,18,20)        -57.1147         calculate D2E/DX2 analytically  !
 ! D64   D(25,16,18,21)       -177.485          calculate D2E/DX2 analytically  !
 ! D65   D(13,16,25,26)        179.4282         calculate D2E/DX2 analytically  !
 ! D66   D(13,16,25,27)         60.0887         calculate D2E/DX2 analytically  !
 ! D67   D(13,16,25,28)        -60.3885         calculate D2E/DX2 analytically  !
 ! D68   D(17,16,25,26)        -62.1121         calculate D2E/DX2 analytically  !
 ! D69   D(17,16,25,27)        178.5485         calculate D2E/DX2 analytically  !
 ! D70   D(17,16,25,28)         58.0712         calculate D2E/DX2 analytically  !
 ! D71   D(18,16,25,26)         55.3822         calculate D2E/DX2 analytically  !
 ! D72   D(18,16,25,27)        -63.9573         calculate D2E/DX2 analytically  !
 ! D73   D(18,16,25,28)        175.5655         calculate D2E/DX2 analytically  !
 --------------------------------------------------------------------------------
 Trust Radius=3.00D-01 FncErr=1.00D-07 GrdErr=1.00D-06
 Number of steps in this run=    165 maximum allowed number of steps=    180.
 Search for a saddle point of order  1.
 GradGradGradGradGradGradGradGradGradGradGradGradGradGradGradGradGradGrad

 Leave Link  103 at Tue Feb 25 19:53:24 2014, MaxMem= 4026531840 cpu:       0.1
 (Enter /usr/caen/gaussian-09revc/g09/l202.exe)
                          Input orientation:                          
 ---------------------------------------------------------------------
 Center     Atomic      Atomic             Coordinates (Angstroms)
 Number     Number       Type             X           Y           Z
 ---------------------------------------------------------------------
      1          6           0        3.127304   -1.698379   -0.424206
      2          1           0        3.046367   -2.677293    0.059931
      3          1           0        3.016078   -1.855271   -1.500656
      4          1           0        4.133973   -1.314002   -0.243523
      5          6           0        2.058196   -0.741379    0.108838
      6          1           0        2.200843    0.302567   -0.663758
      7          6           0        0.618021   -1.191245   -0.190004
      8          1           0        0.468026   -2.179923    0.264257
      9          1           0        0.531663   -1.349758   -1.271867
     10          6           0       -0.503540   -0.249703    0.263389
     11          1           0       -0.504541   -0.167760    1.356851
     12          1           0       -0.310840    0.755894   -0.123809
     13          6           0       -1.886519   -0.733063   -0.193743
     14          1           0       -1.918594   -0.756346   -1.291605
     15          1           0       -2.021488   -1.771364    0.135133
     16          6           0       -3.076141    0.098765    0.321982
     17          1           0       -3.005825    0.132454    1.418250
     18          6           0       -4.404008   -0.581748   -0.039494
     19          1           0       -4.526781   -0.646028   -1.126395
     20          1           0       -5.256683   -0.022646    0.356863
     21          1           0       -4.454309   -1.598518    0.361578
     22          6           0        2.351465   -0.004754    1.255633
     23          1           0        1.583103    0.450723    1.865421
     24          1           0        3.356934    0.034137    1.655944
     25          6           0       -3.053036    1.543929   -0.196637
     26          1           0       -3.913749    2.106034    0.177509
     27          1           0       -3.095167    1.563835   -1.291612
     28          1           0       -2.152517    2.080267    0.111781
     29          8           0        2.705889    1.955507    0.239393
     30          8           0        2.473243    1.576801   -0.949998
 ---------------------------------------------------------------------
                    Distance matrix (angstroms):
                    1          2          3          4          5
     1  C    0.000000
     2  H    1.095085   0.000000
     3  H    1.093495   1.764106   0.000000
     4  H    1.092600   1.770179   1.767214   0.000000
     5  C    1.530679   2.174083   2.179166   2.181950   0.000000
     6  H    2.217995   3.180912   2.453828   2.554777   1.306551
     7  C    2.570707   2.857914   2.812368   3.518501   1.538112
     8  H    2.788839   2.633813   3.116550   3.800898   2.149931
     9  H    2.752711   3.140027   2.545625   3.746386   2.146340
    10  C    3.969191   4.305395   4.251754   4.784999   2.613068
    11  H    4.324957   4.537478   4.838161   5.038936   2.907610
    12  H    4.234918   4.805348   4.447727   4.904606   2.812167
    13  C    5.111103   5.308271   5.196425   6.048660   3.956312
    14  H    5.205852   5.492497   5.059874   6.167903   4.216198
    15  H    5.179599   5.148739   5.297161   6.184033   4.207776
    16  C    6.501481   6.727576   6.652473   7.368952   5.206985
    17  H    6.660470   6.809459   6.981001   7.471977   5.303061
    18  C    7.623354   7.740109   7.669063   8.571753   6.465877
    19  H    7.757933   7.930068   7.648337   8.731226   6.700509
    20  H    8.585417   8.722153   8.674530   9.498025   7.354288
    21  H    7.622879   7.583857   7.703280   8.614272   6.573529
    22  C    2.508416   3.009162   3.385743   2.671878   1.394189
    23  H    3.499370   3.896847   4.324523   3.750845   2.175409
    24  H    2.716867   3.161576   3.694614   2.455452   2.163720
    25  C    6.982904   7.422079   7.077370   7.734537   5.607195
    26  H    8.025712   8.446139   8.156634   8.754413   6.616389
    27  H    7.079094   7.585003   7.005805   7.851172   5.816564
    28  H    6.514749   7.047373   6.693488   7.153129   5.068708
    29  O    3.737491   4.648760   4.200716   3.600322   2.776643
    30  O    3.380985   4.409733   3.518098   3.407913   2.582122
                    6          7          8          9         10
     6  H    0.000000
     7  C    2.227385   0.000000
     8  H    3.166484   1.098333   0.000000
     9  H    2.426136   1.096819   1.747255   0.000000
    10  C    2.911751   1.532960   2.160947   2.153782   0.000000
    11  H    3.409277   2.168047   2.487659   3.062841   1.096529
    12  H    2.608755   2.158359   3.062066   2.541971   1.094660
    13  C    4.242637   2.546108   2.801259   2.718505   1.534678
    14  H    4.299448   2.799478   3.184844   2.521168   2.162654
    15  H    4.771530   2.721996   2.526118   2.945502   2.153153
    16  C    5.372130   3.946275   4.213890   4.201764   2.596755
    17  H    5.610088   4.179823   4.329715   4.684816   2.782297
    18  C    6.692965   5.061118   5.136452   5.144845   3.926276
    19  H    6.809904   5.257668   5.406926   5.109232   4.274932
    20  H    7.534064   6.014718   6.118391   6.157835   4.759481
    21  H    6.996891   5.118461   4.957508   5.252613   4.175826
    22  C    1.949665   2.549991   3.043276   3.392487   3.032425
    23  H    2.607738   2.802180   3.275274   3.766940   2.722349
    24  H    2.605690   3.522887   3.896748   4.297604   4.113762
    25  C    5.418711   4.577978   5.145617   4.730709   3.150979
    26  H    6.430277   5.616409   6.130000   5.814196   4.145648
    27  H    5.480212   4.753080   5.397481   4.652237   3.524696
    28  H    4.765860   4.297644   5.003970   4.569943   2.858473
    29  O    1.950119   3.800740   4.702173   4.235085   3.894093
    30  O    1.334094   3.417824   4.428124   3.526766   3.697251
                   11         12         13         14         15
    11  H    0.000000
    12  H    1.755850   0.000000
    13  C    2.152620   2.169020   0.000000
    14  H    3.059460   2.497096   1.098577   0.000000
    15  H    2.522948   3.062744   1.097472   1.753975   0.000000
    16  C    2.784801   2.877054   1.540490   2.162127   2.155131
    17  H    2.519984   3.166949   2.144875   3.052106   2.497965
    18  C    4.162572   4.307020   2.526745   2.788467   2.668723
    19  H    4.751175   4.554637   2.801499   2.615742   3.022305
    20  H    4.858383   5.029765   3.487960   3.794549   3.684246
    21  H    4.317210   4.790323   2.766033   3.141993   2.449443
    22  C    2.862444   3.093431   4.537800   5.028590   4.847592
    23  H    2.235939   2.763546   4.204733   4.866797   4.574346
    24  H    3.878300   4.140171   5.612819   6.094596   5.873681
    25  C    3.440644   2.854110   2.558410   2.788759   3.487883
    26  H    4.264233   3.859355   3.508270   3.785784   4.314703
    27  H    4.089513   3.125541   2.818135   2.601454   3.783113
    28  H    3.052810   2.280623   2.842345   3.173419   3.853930
    29  O    4.007972   3.266748   5.339122   5.575298   6.020675
    30  O    4.151174   3.017879   4.991485   4.984827   5.708794
                   16         17         18         19         20
    16  C    0.000000
    17  H    1.099037   0.000000
    18  C    1.535250   2.142433   0.000000
    19  H    2.181025   3.065055   1.095700   0.000000
    20  H    2.184198   2.493383   1.093960   1.766753   0.000000
    21  H    2.186706   2.492173   1.094171   1.768206   1.768389
    22  C    5.508296   5.361513   6.902658   7.307226   7.661072
    23  H    4.920837   4.621636   6.367118   6.890900   7.020149
    24  H    6.570242   6.367956   7.967813   8.387908   8.711213
    25  C    1.535578   2.145309   2.523553   2.798622   2.759815
    26  H    2.179814   2.501756   2.740733   3.106416   2.523275
    27  H    2.179559   3.065972   2.807916   2.638240   3.147466
    28  H    2.196273   2.495791   3.489759   3.821373   3.757413
    29  O    6.073400   6.110393   7.554209   7.806720   8.205452
    30  O    5.882022   6.141248   7.265324   7.346592   8.001117
                   21         22         23         24         25
    21  H    0.000000
    22  C    7.046842   0.000000
    23  H    6.550670   1.081518   0.000000
    24  H    8.084334   1.082926   1.834094   0.000000
    25  C    3.485706   5.806560   5.190469   6.840997   0.000000
    26  H    3.748305   6.698558   5.983685   7.703334   1.093972
    27  H    3.818479   6.214075   5.752572   7.256560   1.095966
    28  H    4.346735   5.093286   4.436837   6.076606   1.092572
    29  O    7.994652   2.236288   2.483745   2.474296   5.790055
    30  O    7.732649   2.716791   3.160219   3.154624   5.577490
                   26         27         28         29         30
    26  H    0.000000
    27  H    1.767024   0.000000
    28  H    1.762646   1.767711   0.000000
    29  O    6.621638   6.012457   4.861683   0.000000
    30  O    6.507306   5.578894   4.772684   1.269722   0.000000
 Stoichiometry    C9H19O2(2)
 Framework group  C1[X(C9H19O2)]
 Deg. of freedom    84
 Full point group                 C1      NOp   1
 Largest Abelian subgroup         C1      NOp   1
 Largest concise Abelian subgroup C1      NOp   1
                         Standard orientation:                         
 ---------------------------------------------------------------------
 Center     Atomic      Atomic             Coordinates (Angstroms)
 Number     Number       Type             X           Y           Z
 ---------------------------------------------------------------------
      1          6           0        3.127304   -1.698379   -0.424206
      2          1           0        3.046367   -2.677293    0.059931
      3          1           0        3.016078   -1.855271   -1.500656
      4          1           0        4.133973   -1.314002   -0.243523
      5          6           0        2.058196   -0.741379    0.108838
      6          1           0        2.200843    0.302567   -0.663758
      7          6           0        0.618021   -1.191245   -0.190004
      8          1           0        0.468026   -2.179923    0.264257
      9          1           0        0.531663   -1.349758   -1.271867
     10          6           0       -0.503540   -0.249703    0.263389
     11          1           0       -0.504541   -0.167760    1.356851
     12          1           0       -0.310840    0.755894   -0.123809
     13          6           0       -1.886519   -0.733063   -0.193743
     14          1           0       -1.918594   -0.756346   -1.291605
     15          1           0       -2.021488   -1.771364    0.135133
     16          6           0       -3.076141    0.098765    0.321982
     17          1           0       -3.005825    0.132454    1.418250
     18          6           0       -4.404008   -0.581748   -0.039494
     19          1           0       -4.526781   -0.646028   -1.126395
     20          1           0       -5.256683   -0.022646    0.356863
     21          1           0       -4.454309   -1.598518    0.361578
     22          6           0        2.351465   -0.004754    1.255633
     23          1           0        1.583103    0.450723    1.865421
     24          1           0        3.356934    0.034137    1.655944
     25          6           0       -3.053036    1.543929   -0.196637
     26          1           0       -3.913749    2.106034    0.177509
     27          1           0       -3.095167    1.563835   -1.291612
     28          1           0       -2.152517    2.080267    0.111781
     29          8           0        2.705889    1.955507    0.239393
     30          8           0        2.473243    1.576801   -0.949998
 ---------------------------------------------------------------------
 Rotational constants (GHZ):      1.7075846      0.4255513      0.3703781
 Leave Link  202 at Tue Feb 25 19:53:24 2014, MaxMem= 4026531840 cpu:       0.3
 (Enter /usr/caen/gaussian-09revc/g09/l301.exe)
 Standard basis: 6-311G(2d,d,p) (5D, 7F)
 Ernie: Thresh=  0.10000D-02 Tol=  0.10000D-05 Strict=F.
 There are   312 symmetry adapted basis functions of A   symmetry.
 Integral buffers will be    131072 words long.
 Raffenetti 2 integral format.
 Two-electron integral symmetry is turned on.
   312 basis functions,   504 primitive gaussians,   323 cartesian basis functions
    45 alpha electrons       44 beta electrons
       nuclear repulsion energy       640.3301873599 Hartrees.
 IExCor=  402 DFT=T Ex+Corr=B3LYP ExCW=0 ScaHFX=  0.200000
 ScaDFX=  0.800000  0.720000  1.000000  0.810000 ScalE2=  1.000000  1.000000
 IRadAn=      0 IRanWt=     -1 IRanGd=            0 ICorTp=0
 NAtoms=   30 NActive=   30 NUniq=   30 SFac= 1.00D+00 NAtFMM=   60 NAOKFM=F Big=F
 Leave Link  301 at Tue Feb 25 19:53:25 2014, MaxMem= 4026531840 cpu:       4.9
 (Enter /usr/caen/gaussian-09revc/g09/l302.exe)
 NPDir=0 NMtPBC=     1 NCelOv=     1 NCel=       1 NClECP=     1 NCelD=      1
         NCelK=      1 NCelE2=     1 NClLst=     1 CellRange=     0.0.
 One-electron integrals computed using PRISM.
 NBasis=   312 RedAO= T  NBF=   312
 NBsUse=   312 1.00D-06 NBFU=   312
 Precomputing XC quadrature grid using
 IXCGrd= 2 IRadAn=           0 IRanWt=          -1 IRanGd=           0 AccXCQ= 0.00D+00.
 NRdTot=    1912 NPtTot=      243844 NUsed=      257631 NTot=      257663
 NSgBfM=   323   323   323   323   323 NAtAll=    30    30.
 Leave Link  302 at Tue Feb 25 19:53:26 2014, MaxMem= 4026531840 cpu:       4.5
 (Enter /usr/caen/gaussian-09revc/g09/l303.exe)
 DipDrv:  MaxL=1.
 Leave Link  303 at Tue Feb 25 19:53:26 2014, MaxMem= 4026531840 cpu:       1.6
 (Enter /usr/caen/gaussian-09revc/g09/l401.exe)
 Harris functional with IExCor=  402 diagonalized for initial guess.
 ExpMin= 1.03D-01 ExpMax= 8.59D+03 ExpMxC= 1.30D+03 IAcc=1 IRadAn=         1 AccDes= 0.00D+00
 HarFok:  IExCor=  402 AccDes= 0.00D+00 IRadAn=         1 IDoV= 1
 ScaDFX=  1.000000  1.000000  1.000000  1.000000
 FoFCou: FMM=F IPFlag=           0 FMFlag=      100000 FMFlg1=           0
         NFxFlg=           0 DoJE=T BraDBF=F KetDBF=T FulRan=T
         Omega=  0.000000  0.000000  1.000000  0.000000  0.000000 ICntrl=     500 IOpCl=  0
         NMat0=    1 NMatS0=    1 NMatT0=    0 NMatD0=    1 NMtDS0=    0 NMtDT0=    0
         I1Cent=           4 NGrid=           0.
 Petite list used in FoFCou.
 Harris En= -504.890738312544    
 Initial guess orbital symmetries:
 Alpha Orbitals:
       Occupied  (A) (A) (A) (A) (A) (A) (A) (A) (A) (A) (A) (A)
                 (A) (A) (A) (A) (A) (A) (A) (A) (A) (A) (A) (A)
                 (A) (A) (A) (A) (A) (A) (A) (A) (A) (A) (A) (A)
                 (A) (A) (A) (A) (A) (A) (A) (A) (A)
       Virtual   (A) (A) (A) (A) (A) (A) (A) (A) (A) (A) (A) (A)
                 (A) (A) (A) (A) (A) (A) (A) (A) (A) (A) (A) (A)
                 (A) (A) (A) (A) (A) (A) (A) (A) (A) (A) (A) (A)
                 (A) (A) (A) (A) (A) (A) (A) (A) (A) (A) (A) (A)
                 (A) (A) (A) (A) (A) (A) (A) (A) (A) (A) (A) (A)
                 (A) (A) (A) (A) (A) (A) (A) (A) (A) (A) (A) (A)
                 (A) (A) (A) (A) (A) (A) (A) (A) (A) (A) (A) (A)
                 (A) (A) (A) (A) (A) (A) (A) (A) (A) (A) (A) (A)
                 (A) (A) (A) (A) (A) (A) (A) (A) (A) (A) (A) (A)
                 (A) (A) (A) (A) (A) (A) (A) (A) (A) (A) (A) (A)
                 (A) (A) (A) (A) (A) (A) (A) (A) (A) (A) (A) (A)
                 (A) (A) (A) (A) (A) (A) (A) (A) (A) (A) (A) (A)
                 (A) (A) (A) (A) (A) (A) (A) (A) (A) (A) (A) (A)
                 (A) (A) (A) (A) (A) (A) (A) (A) (A) (A) (A) (A)
                 (A) (A) (A) (A) (A) (A) (A) (A) (A) (A) (A) (A)
                 (A) (A) (A) (A) (A) (A) (A) (A) (A) (A) (A) (A)
                 (A) (A) (A) (A) (A) (A) (A) (A) (A) (A) (A) (A)
                 (A) (A) (A) (A) (A) (A) (A) (A) (A) (A) (A) (A)
                 (A) (A) (A) (A) (A) (A) (A) (A) (A) (A) (A) (A)
                 (A) (A) (A) (A) (A) (A) (A) (A) (A) (A) (A) (A)
                 (A) (A) (A) (A) (A) (A) (A) (A) (A) (A) (A) (A)
                 (A) (A) (A) (A) (A) (A) (A) (A) (A) (A) (A) (A)
                 (A) (A) (A)
 Beta  Orbitals:
       Occupied  (A) (A) (A) (A) (A) (A) (A) (A) (A) (A) (A) (A)
                 (A) (A) (A) (A) (A) (A) (A) (A) (A) (A) (A) (A)
                 (A) (A) (A) (A) (A) (A) (A) (A) (A) (A) (A) (A)
                 (A) (A) (A) (A) (A) (A) (A) (A)
       Virtual   (A) (A) (A) (A) (A) (A) (A) (A) (A) (A) (A) (A)
                 (A) (A) (A) (A) (A) (A) (A) (A) (A) (A) (A) (A)
                 (A) (A) (A) (A) (A) (A) (A) (A) (A) (A) (A) (A)
                 (A) (A) (A) (A) (A) (A) (A) (A) (A) (A) (A) (A)
                 (A) (A) (A) (A) (A) (A) (A) (A) (A) (A) (A) (A)
                 (A) (A) (A) (A) (A) (A) (A) (A) (A) (A) (A) (A)
                 (A) (A) (A) (A) (A) (A) (A) (A) (A) (A) (A) (A)
                 (A) (A) (A) (A) (A) (A) (A) (A) (A) (A) (A) (A)
                 (A) (A) (A) (A) (A) (A) (A) (A) (A) (A) (A) (A)
                 (A) (A) (A) (A) (A) (A) (A) (A) (A) (A) (A) (A)
                 (A) (A) (A) (A) (A) (A) (A) (A) (A) (A) (A) (A)
                 (A) (A) (A) (A) (A) (A) (A) (A) (A) (A) (A) (A)
                 (A) (A) (A) (A) (A) (A) (A) (A) (A) (A) (A) (A)
                 (A) (A) (A) (A) (A) (A) (A) (A) (A) (A) (A) (A)
                 (A) (A) (A) (A) (A) (A) (A) (A) (A) (A) (A) (A)
                 (A) (A) (A) (A) (A) (A) (A) (A) (A) (A) (A) (A)
                 (A) (A) (A) (A) (A) (A) (A) (A) (A) (A) (A) (A)
                 (A) (A) (A) (A) (A) (A) (A) (A) (A) (A) (A) (A)
                 (A) (A) (A) (A) (A) (A) (A) (A) (A) (A) (A) (A)
                 (A) (A) (A) (A) (A) (A) (A) (A) (A) (A) (A) (A)
                 (A) (A) (A) (A) (A) (A) (A) (A) (A) (A) (A) (A)
                 (A) (A) (A) (A) (A) (A) (A) (A) (A) (A) (A) (A)
                 (A) (A) (A) (A)
 The electronic state of the initial guess is 2-A.
 Initial guess <Sx>= 0.0000 <Sy>= 0.0000 <Sz>= 0.5000 <S**2>= 0.7500 S= 0.5000
 Leave Link  401 at Tue Feb 25 19:53:28 2014, MaxMem= 4026531840 cpu:       8.1
 (Enter /usr/caen/gaussian-09revc/g09/l502.exe)
 UHF open shell SCF:
 Requested convergence on RMS density matrix=1.00D-08 within 128 cycles.
 Requested convergence on MAX density matrix=1.00D-06.
 Requested convergence on             energy=1.00D-06.
 No special actions if energy rises.
 Using DIIS extrapolation, IDIIS=  1040.
 Integral symmetry usage will be decided dynamically.
       257348 words used for storage of precomputed grid.
 Keep R1 and R2 ints in memory in canonical form, NReq=2755662079.
 IEnd=      593506 IEndB=      593506 NGot=  4026531840 MDV=  1287996997
 LenX=  1287996997 LenY=  1287892227
 Symmetry not used in FoFDir.
 MinBra= 0 MaxBra= 2 Meth= 1.
 IRaf=       0 NMat=   1 IRICut=       1 DoRegI=T DoRafI=F ISym2E= 0 JSym2E=0.
 Integral accuracy reduced to 1.0D-05 until final iterations.

 Cycle   1  Pass 0  IDiag  1:
 E= -504.410137358339    
 DIIS: error= 3.55D-02 at cycle   1 NSaved=   1.
 NSaved= 1 IEnMin= 1 EnMin= -504.410137358339     IErMin= 1 ErrMin= 3.55D-02
 ErrMax= 3.55D-02 EMaxC= 1.00D-01 BMatC= 1.62D+00 BMatP= 1.62D+00
 IDIUse=3 WtCom= 6.45D-01 WtEn= 3.55D-01
 Coeff-Com:  0.100D+01
 Coeff-En:   0.100D+01
 Coeff:      0.100D+01
 Gap=     0.358 Goal=   None    Shift=    0.000
 Gap=     0.060 Goal=   None    Shift=    0.000
 GapD=    0.060 DampG=0.500 DampE=0.500 DampFc=0.2500 IDamp=-1.
 Damping current iteration by 2.50D-01
 RMSDP=3.97D-03 MaxDP=1.58D-01              OVMax= 9.46D-01

 Cycle   2  Pass 0  IDiag  1:
 E= -504.518696221701     Delta-E=       -0.108558863363 Rises=F Damp=T
 DIIS: error= 1.99D-02 at cycle   2 NSaved=   2.
 NSaved= 2 IEnMin= 2 EnMin= -504.518696221701     IErMin= 2 ErrMin= 1.99D-02
 ErrMax= 1.99D-02 EMaxC= 1.00D-01 BMatC= 3.63D-01 BMatP= 1.62D+00
 IDIUse=3 WtCom= 8.01D-01 WtEn= 1.99D-01
 Coeff-Com: -0.439D+00 0.144D+01
 Coeff-En:   0.714D-01 0.929D+00
 Coeff:     -0.337D+00 0.134D+01
 Gap=     0.334 Goal=   None    Shift=    0.000
 Gap=    -0.278 Goal=   None    Shift=    0.000
 RMSDP=1.70D-03 MaxDP=6.70D-02 DE=-1.09D-01 OVMax= 9.46D-01

 Cycle   3  Pass 0  IDiag  1:
 E= -504.642704522072     Delta-E=       -0.124008300370 Rises=F Damp=F
 DIIS: error= 5.47D-02 at cycle   3 NSaved=   3.
 NSaved= 3 IEnMin= 3 EnMin= -504.642704522072     IErMin= 2 ErrMin= 1.99D-02
 ErrMax= 5.47D-02 EMaxC= 1.00D-01 BMatC= 7.08D-01 BMatP= 3.63D-01
 IDIUse=2 WtCom= 0.00D+00 WtEn= 1.00D+00
 Coeff-En:   0.000D+00 0.209D+00 0.791D+00
 Coeff:      0.000D+00 0.209D+00 0.791D+00
 Gap=     0.387 Goal=   None    Shift=    0.000
 Gap=     0.023 Goal=   None    Shift=    0.000
 RMSDP=3.06D-03 MaxDP=1.60D-01 DE=-1.24D-01 OVMax= 8.08D-01

 Cycle   4  Pass 0  IDiag  1:
 E= -503.898362586365     Delta-E=        0.744341935706 Rises=F Damp=F
 DIIS: error= 1.08D-01 at cycle   4 NSaved=   4.
 NSaved= 4 IEnMin= 3 EnMin= -504.642704522072     IErMin= 2 ErrMin= 1.99D-02
 ErrMax= 1.08D-01 EMaxC= 1.00D-01 BMatC= 3.07D+00 BMatP= 3.63D-01
 IDIUse=2 WtCom= 0.00D+00 WtEn= 1.00D+00
 Coeff-En:   0.000D+00 0.000D+00 0.779D+00 0.221D+00
 Coeff:      0.000D+00 0.000D+00 0.779D+00 0.221D+00
 Gap=     0.261 Goal=   None    Shift=    0.000
 Gap=     0.028 Goal=   None    Shift=    0.000
 RMSDP=2.05D-03 MaxDP=1.41D-01 DE= 7.44D-01 OVMax= 9.26D-01

 Cycle   5  Pass 0  IDiag  1:
 E= -504.782228800384     Delta-E=       -0.883866214019 Rises=F Damp=F
 DIIS: error= 3.04D-02 at cycle   5 NSaved=   5.
 NSaved= 5 IEnMin= 5 EnMin= -504.782228800384     IErMin= 2 ErrMin= 1.99D-02
 ErrMax= 3.04D-02 EMaxC= 1.00D-01 BMatC= 1.84D-01 BMatP= 3.63D-01
 IDIUse=3 WtCom= 6.96D-01 WtEn= 3.04D-01
 Coeff-Com: -0.134D+00 0.271D+00 0.341D+00-0.102D-02 0.523D+00
 Coeff-En:   0.000D+00 0.000D+00 0.218D+00 0.000D+00 0.782D+00
 Coeff:     -0.931D-01 0.188D+00 0.304D+00-0.709D-03 0.602D+00
 Gap=     0.210 Goal=   None    Shift=    0.000
 Gap=     0.163 Goal=   None    Shift=    0.000
 RMSDP=6.39D-04 MaxDP=3.03D-02 DE=-8.84D-01 OVMax= 1.28D-01

 Cycle   6  Pass 0  IDiag  1:
 E= -504.818414199343     Delta-E=       -0.036185398959 Rises=F Damp=F
 DIIS: error= 4.38D-03 at cycle   6 NSaved=   6.
 NSaved= 6 IEnMin= 6 EnMin= -504.818414199343     IErMin= 6 ErrMin= 4.38D-03
 ErrMax= 4.38D-03 EMaxC= 1.00D-01 BMatC= 1.58D-02 BMatP= 1.84D-01
 IDIUse=3 WtCom= 9.56D-01 WtEn= 4.38D-02
 Coeff-Com: -0.653D-01 0.997D-01 0.133D+00-0.225D-01 0.362D+00 0.493D+00
 Coeff-En:   0.000D+00 0.000D+00 0.000D+00 0.000D+00 0.621D-02 0.994D+00
 Coeff:     -0.624D-01 0.953D-01 0.127D+00-0.216D-01 0.346D+00 0.515D+00
 Gap=     0.210 Goal=   None    Shift=    0.000
 Gap=     0.150 Goal=   None    Shift=    0.000
 RMSDP=2.08D-04 MaxDP=8.34D-03 DE=-3.62D-02 OVMax= 4.21D-02

 Cycle   7  Pass 0  IDiag  1:
 E= -504.821358491534     Delta-E=       -0.002944292191 Rises=F Damp=F
 DIIS: error= 3.10D-03 at cycle   7 NSaved=   7.
 NSaved= 7 IEnMin= 7 EnMin= -504.821358491534     IErMin= 7 ErrMin= 3.10D-03
 ErrMax= 3.10D-03 EMaxC= 1.00D-01 BMatC= 3.85D-03 BMatP= 1.58D-02
 IDIUse=3 WtCom= 9.69D-01 WtEn= 3.10D-02
 Coeff-Com: -0.287D-01 0.418D-01 0.598D-01-0.141D-01 0.171D+00 0.346D+00
 Coeff-Com:  0.424D+00
 Coeff-En:   0.000D+00 0.000D+00 0.000D+00 0.000D+00 0.000D+00 0.182D+00
 Coeff-En:   0.818D+00
 Coeff:     -0.278D-01 0.405D-01 0.579D-01-0.136D-01 0.166D+00 0.341D+00
 Coeff:      0.436D+00
 Gap=     0.208 Goal=   None    Shift=    0.000
 Gap=     0.154 Goal=   None    Shift=    0.000
 RMSDP=8.42D-05 MaxDP=3.53D-03 DE=-2.94D-03 OVMax= 1.74D-02

 Cycle   8  Pass 0  IDiag  1:
 E= -504.822108367635     Delta-E=       -0.000749876102 Rises=F Damp=F
 DIIS: error= 2.12D-03 at cycle   8 NSaved=   8.
 NSaved= 8 IEnMin= 8 EnMin= -504.822108367635     IErMin= 8 ErrMin= 2.12D-03
 ErrMax= 2.12D-03 EMaxC= 1.00D-01 BMatC= 7.40D-04 BMatP= 3.85D-03
 IDIUse=3 WtCom= 9.79D-01 WtEn= 2.12D-02
 Coeff-Com: -0.439D-03 0.289D-02 0.393D-02-0.123D-02-0.777D-02 0.772D-01
 Coeff-Com:  0.327D+00 0.598D+00
 Coeff-En:   0.000D+00 0.000D+00 0.000D+00 0.000D+00 0.000D+00 0.000D+00
 Coeff-En:   0.115D+00 0.885D+00
 Coeff:     -0.430D-03 0.283D-02 0.384D-02-0.121D-02-0.761D-02 0.755D-01
 Coeff:      0.323D+00 0.604D+00
 Gap=     0.209 Goal=   None    Shift=    0.000
 Gap=     0.155 Goal=   None    Shift=    0.000
 RMSDP=3.48D-05 MaxDP=1.92D-03 DE=-7.50D-04 OVMax= 7.93D-03

 Cycle   9  Pass 0  IDiag  1:
 E= -504.822238319185     Delta-E=       -0.000129951549 Rises=F Damp=F
 DIIS: error= 6.06D-04 at cycle   9 NSaved=   9.
 NSaved= 9 IEnMin= 9 EnMin= -504.822238319185     IErMin= 9 ErrMin= 6.06D-04
 ErrMax= 6.06D-04 EMaxC= 1.00D-01 BMatC= 1.47D-04 BMatP= 7.40D-04
 IDIUse=3 WtCom= 9.94D-01 WtEn= 6.06D-03
 Coeff-Com:  0.268D-02-0.440D-02-0.167D-02 0.116D-02-0.125D-01 0.247D-01
 Coeff-Com:  0.153D+00 0.379D+00 0.458D+00
 Coeff-En:   0.000D+00 0.000D+00 0.000D+00 0.000D+00 0.000D+00 0.000D+00
 Coeff-En:   0.000D+00 0.874D-01 0.913D+00
 Coeff:      0.267D-02-0.438D-02-0.166D-02 0.116D-02-0.124D-01 0.246D-01
 Coeff:      0.152D+00 0.377D+00 0.461D+00
 Gap=     0.209 Goal=   None    Shift=    0.000
 Gap=     0.154 Goal=   None    Shift=    0.000
 RMSDP=1.33D-05 MaxDP=8.14D-04 DE=-1.30D-04 OVMax= 3.79D-03

 Cycle  10  Pass 0  IDiag  1:
 E= -504.822272528453     Delta-E=       -0.000034209268 Rises=F Damp=F
 DIIS: error= 1.55D-04 at cycle  10 NSaved=  10.
 NSaved=10 IEnMin=10 EnMin= -504.822272528453     IErMin=10 ErrMin= 1.55D-04
 ErrMax= 1.55D-04 EMaxC= 1.00D-01 BMatC= 8.24D-06 BMatP= 1.47D-04
 IDIUse=3 WtCom= 9.98D-01 WtEn= 1.55D-03
 Coeff-Com:  0.245D-03-0.609D-03-0.265D-02 0.456D-03-0.318D-02-0.180D-02
 Coeff-Com: -0.544D-02 0.207D-01 0.101D+00 0.891D+00
 Coeff-En:   0.000D+00 0.000D+00 0.000D+00 0.000D+00 0.000D+00 0.000D+00
 Coeff-En:   0.000D+00 0.000D+00 0.000D+00 0.100D+01
 Coeff:      0.245D-03-0.608D-03-0.265D-02 0.455D-03-0.318D-02-0.180D-02
 Coeff:     -0.543D-02 0.207D-01 0.101D+00 0.892D+00
 Gap=     0.210 Goal=   None    Shift=    0.000
 Gap=     0.154 Goal=   None    Shift=    0.000
 RMSDP=1.05D-05 MaxDP=5.00D-04 DE=-3.42D-05 OVMax= 2.88D-03

 Cycle  11  Pass 0  IDiag  1:
 E= -504.822280941555     Delta-E=       -0.000008413102 Rises=F Damp=F
 DIIS: error= 1.18D-04 at cycle  11 NSaved=  11.
 NSaved=11 IEnMin=11 EnMin= -504.822280941555     IErMin=11 ErrMin= 1.18D-04
 ErrMax= 1.18D-04 EMaxC= 1.00D-01 BMatC= 3.07D-06 BMatP= 8.24D-06
 IDIUse=3 WtCom= 9.99D-01 WtEn= 1.18D-03
 Coeff-Com: -0.700D-03 0.101D-02-0.340D-03-0.563D-04 0.233D-02-0.588D-02
 Coeff-Com: -0.360D-01-0.834D-01-0.124D+00 0.186D+00 0.106D+01
 Coeff-En:   0.000D+00 0.000D+00 0.000D+00 0.000D+00 0.000D+00 0.000D+00
 Coeff-En:   0.000D+00 0.000D+00 0.000D+00 0.000D+00 0.100D+01
 Coeff:     -0.699D-03 0.101D-02-0.339D-03-0.563D-04 0.233D-02-0.588D-02
 Coeff:     -0.360D-01-0.833D-01-0.124D+00 0.185D+00 0.106D+01
 Gap=     0.210 Goal=   None    Shift=    0.000
 Gap=     0.154 Goal=   None    Shift=    0.000
 RMSDP=9.83D-06 MaxDP=4.87D-04 DE=-8.41D-06 OVMax= 3.07D-03

 Initial convergence to 1.0D-05 achieved.  Increase integral accuracy.
 Cycle  12  Pass 1  IDiag  1:
 E= -504.822320292306     Delta-E=       -0.000039350751 Rises=F Damp=F
 DIIS: error= 4.76D-05 at cycle   1 NSaved=   1.
 NSaved= 1 IEnMin= 1 EnMin= -504.822320292306     IErMin= 1 ErrMin= 4.76D-05
 ErrMax= 4.76D-05 EMaxC= 1.00D-01 BMatC= 1.47D-06 BMatP= 1.47D-06
 IDIUse=1 WtCom= 1.00D+00 WtEn= 0.00D+00
 Coeff-Com:  0.100D+01
 Coeff:      0.100D+01
 Gap=     0.210 Goal=   None    Shift=    0.000
 Gap=     0.154 Goal=   None    Shift=    0.000
 RMSDP=9.83D-06 MaxDP=4.87D-04 DE=-3.94D-05 OVMax= 1.30D-03

 Cycle  13  Pass 1  IDiag  1:
 E= -504.822321416732     Delta-E=       -0.000001124426 Rises=F Damp=F
 DIIS: error= 4.04D-05 at cycle   2 NSaved=   2.
 NSaved= 2 IEnMin= 2 EnMin= -504.822321416732     IErMin= 2 ErrMin= 4.04D-05
 ErrMax= 4.04D-05 EMaxC= 1.00D-01 BMatC= 1.49D-06 BMatP= 1.47D-06
 IDIUse=1 WtCom= 1.00D+00 WtEn= 0.00D+00
 Coeff-Com:  0.502D+00 0.498D+00
 Coeff:      0.502D+00 0.498D+00
 Gap=     0.210 Goal=   None    Shift=    0.000
 Gap=     0.154 Goal=   None    Shift=    0.000
 RMSDP=2.17D-06 MaxDP=1.11D-04 DE=-1.12D-06 OVMax= 5.48D-04

 Cycle  14  Pass 1  IDiag  1:
 E= -504.822321958252     Delta-E=       -0.000000541520 Rises=F Damp=F
 DIIS: error= 3.69D-05 at cycle   3 NSaved=   3.
 NSaved= 3 IEnMin= 3 EnMin= -504.822321958252     IErMin= 3 ErrMin= 3.69D-05
 ErrMax= 3.69D-05 EMaxC= 1.00D-01 BMatC= 4.69D-07 BMatP= 1.47D-06
 IDIUse=1 WtCom= 1.00D+00 WtEn= 0.00D+00
 Coeff-Com:  0.467D-01 0.289D+00 0.664D+00
 Coeff:      0.467D-01 0.289D+00 0.664D+00
 Gap=     0.210 Goal=   None    Shift=    0.000
 Gap=     0.154 Goal=   None    Shift=    0.000
 RMSDP=2.04D-06 MaxDP=1.09D-04 DE=-5.42D-07 OVMax= 6.29D-04

 Cycle  15  Pass 1  IDiag  1:
 E= -504.822322290261     Delta-E=       -0.000000332009 Rises=F Damp=F
 DIIS: error= 4.34D-05 at cycle   4 NSaved=   4.
 NSaved= 4 IEnMin= 4 EnMin= -504.822322290261     IErMin= 3 ErrMin= 3.69D-05
 ErrMax= 4.34D-05 EMaxC= 1.00D-01 BMatC= 4.41D-07 BMatP= 4.69D-07
 IDIUse=1 WtCom= 1.00D+00 WtEn= 0.00D+00
 Coeff-Com: -0.308D+00-0.422D-01 0.706D+00 0.644D+00
 Coeff:     -0.308D+00-0.422D-01 0.706D+00 0.644D+00
 Gap=     0.210 Goal=   None    Shift=    0.000
 Gap=     0.154 Goal=   None    Shift=    0.000
 RMSDP=2.46D-06 MaxDP=1.18D-04 DE=-3.32D-07 OVMax= 7.66D-04

 Cycle  16  Pass 1  IDiag  1:
 E= -504.822322650631     Delta-E=       -0.000000360370 Rises=F Damp=F
 DIIS: error= 1.11D-05 at cycle   5 NSaved=   5.
 NSaved= 5 IEnMin= 5 EnMin= -504.822322650631     IErMin= 5 ErrMin= 1.11D-05
 ErrMax= 1.11D-05 EMaxC= 1.00D-01 BMatC= 5.22D-08 BMatP= 4.41D-07
 IDIUse=1 WtCom= 1.00D+00 WtEn= 0.00D+00
 Coeff-Com: -0.103D+00-0.149D+00-0.126D+00 0.144D+00 0.123D+01
 Coeff:     -0.103D+00-0.149D+00-0.126D+00 0.144D+00 0.123D+01
 Gap=     0.210 Goal=   None    Shift=    0.000
 Gap=     0.154 Goal=   None    Shift=    0.000
 RMSDP=2.37D-06 MaxDP=1.20D-04 DE=-3.60D-07 OVMax= 7.30D-04

 Cycle  17  Pass 1  IDiag  1:
 E= -504.822322788438     Delta-E=       -0.000000137807 Rises=F Damp=F
 DIIS: error= 6.01D-06 at cycle   6 NSaved=   6.
 NSaved= 6 IEnMin= 6 EnMin= -504.822322788438     IErMin= 6 ErrMin= 6.01D-06
 ErrMax= 6.01D-06 EMaxC= 1.00D-01 BMatC= 3.06D-08 BMatP= 5.22D-08
 IDIUse=1 WtCom= 1.00D+00 WtEn= 0.00D+00
 Coeff-Com:  0.201D-01-0.887D-01-0.296D+00-0.885D-01 0.844D+00 0.610D+00
 Coeff:      0.201D-01-0.887D-01-0.296D+00-0.885D-01 0.844D+00 0.610D+00
 Gap=     0.210 Goal=   None    Shift=    0.000
 Gap=     0.154 Goal=   None    Shift=    0.000
 RMSDP=8.86D-07 MaxDP=4.58D-05 DE=-1.38D-07 OVMax= 2.72D-04

 Cycle  18  Pass 1  IDiag  1:
 E= -504.822322806725     Delta-E=       -0.000000018287 Rises=F Damp=F
 DIIS: error= 1.28D-06 at cycle   7 NSaved=   7.
 NSaved= 7 IEnMin= 7 EnMin= -504.822322806725     IErMin= 7 ErrMin= 1.28D-06
 ErrMax= 1.28D-06 EMaxC= 1.00D-01 BMatC= 1.05D-09 BMatP= 3.06D-08
 IDIUse=1 WtCom= 1.00D+00 WtEn= 0.00D+00
 Coeff-Com:  0.131D-01-0.345D-01-0.123D+00-0.522D-01 0.332D+00 0.269D+00
 Coeff-Com:  0.596D+00
 Coeff:      0.131D-01-0.345D-01-0.123D+00-0.522D-01 0.332D+00 0.269D+00
 Coeff:      0.596D+00
 Gap=     0.210 Goal=   None    Shift=    0.000
 Gap=     0.154 Goal=   None    Shift=    0.000
 RMSDP=7.95D-08 MaxDP=4.65D-06 DE=-1.83D-08 OVMax= 2.42D-05

 Cycle  19  Pass 1  IDiag  1:
 E= -504.822322807063     Delta-E=       -0.000000000338 Rises=F Damp=F
 DIIS: error= 6.80D-07 at cycle   8 NSaved=   8.
 NSaved= 8 IEnMin= 8 EnMin= -504.822322807063     IErMin= 8 ErrMin= 6.80D-07
 ErrMax= 6.80D-07 EMaxC= 1.00D-01 BMatC= 2.64D-10 BMatP= 1.05D-09
 IDIUse=1 WtCom= 1.00D+00 WtEn= 0.00D+00
 Coeff-Com:  0.352D-02-0.209D-02-0.883D-02-0.154D-01 0.251D-01 0.262D-01
 Coeff-Com:  0.309D+00 0.663D+00
 Coeff:      0.352D-02-0.209D-02-0.883D-02-0.154D-01 0.251D-01 0.262D-01
 Coeff:      0.309D+00 0.663D+00
 Gap=     0.210 Goal=   None    Shift=    0.000
 Gap=     0.154 Goal=   None    Shift=    0.000
 RMSDP=3.04D-08 MaxDP=1.65D-06 DE=-3.38D-10 OVMax= 6.69D-06

 Cycle  20  Pass 1  IDiag  1:
 E= -504.822322807138     Delta-E=       -0.000000000075 Rises=F Damp=F
 DIIS: error= 4.26D-07 at cycle   9 NSaved=   9.
 NSaved= 9 IEnMin= 9 EnMin= -504.822322807138     IErMin= 9 ErrMin= 4.26D-07
 ErrMax= 4.26D-07 EMaxC= 1.00D-01 BMatC= 8.78D-11 BMatP= 2.64D-10
 IDIUse=1 WtCom= 1.00D+00 WtEn= 0.00D+00
 Coeff-Com: -0.220D-02 0.905D-02 0.348D-01 0.411D-02-0.859D-01-0.696D-01
 Coeff-Com:  0.321D-01 0.394D+00 0.683D+00
 Coeff:     -0.220D-02 0.905D-02 0.348D-01 0.411D-02-0.859D-01-0.696D-01
 Coeff:      0.321D-01 0.394D+00 0.683D+00
 Gap=     0.210 Goal=   None    Shift=    0.000
 Gap=     0.154 Goal=   None    Shift=    0.000
 RMSDP=2.37D-08 MaxDP=1.08D-06 DE=-7.50D-11 OVMax= 5.61D-06

 Cycle  21  Pass 1  IDiag  1:
 E= -504.822322807168     Delta-E=       -0.000000000031 Rises=F Damp=F
 DIIS: error= 2.89D-07 at cycle  10 NSaved=  10.
 NSaved=10 IEnMin=10 EnMin= -504.822322807168     IErMin=10 ErrMin= 2.89D-07
 ErrMax= 2.89D-07 EMaxC= 1.00D-01 BMatC= 3.74D-11 BMatP= 8.78D-11
 IDIUse=1 WtCom= 1.00D+00 WtEn= 0.00D+00
 Coeff-Com: -0.207D-02 0.562D-02 0.224D-01 0.543D-02-0.535D-01-0.470D-01
 Coeff-Com: -0.838D-01-0.253D-01 0.507D+00 0.671D+00
 Coeff:     -0.207D-02 0.562D-02 0.224D-01 0.543D-02-0.535D-01-0.470D-01
 Coeff:     -0.838D-01-0.253D-01 0.507D+00 0.671D+00
 Gap=     0.210 Goal=   None    Shift=    0.000
 Gap=     0.154 Goal=   None    Shift=    0.000
 RMSDP=1.29D-08 MaxDP=7.25D-07 DE=-3.07D-11 OVMax= 3.17D-06

 Cycle  22  Pass 1  IDiag  1:
 E= -504.822322807181     Delta-E=       -0.000000000013 Rises=F Damp=F
 DIIS: error= 5.02D-08 at cycle  11 NSaved=  11.
 NSaved=11 IEnMin=11 EnMin= -504.822322807181     IErMin=11 ErrMin= 5.02D-08
 ErrMax= 5.02D-08 EMaxC= 1.00D-01 BMatC= 2.16D-12 BMatP= 3.74D-11
 IDIUse=1 WtCom= 1.00D+00 WtEn= 0.00D+00
 Coeff-Com: -0.721D-03 0.130D-02 0.580D-02 0.189D-02-0.129D-01-0.126D-01
 Coeff-Com: -0.445D-01-0.758D-01 0.125D+00 0.296D+00 0.717D+00
 Coeff:     -0.721D-03 0.130D-02 0.580D-02 0.189D-02-0.129D-01-0.126D-01
 Coeff:     -0.445D-01-0.758D-01 0.125D+00 0.296D+00 0.717D+00
 Gap=     0.210 Goal=   None    Shift=    0.000
 Gap=     0.154 Goal=   None    Shift=    0.000
 RMSDP=3.86D-09 MaxDP=1.39D-07 DE=-1.25D-11 OVMax= 8.69D-07

 SCF Done:  E(UB3LYP) =  -504.822322807     A.U. after   22 cycles
             Convg  =    0.3856D-08             -V/T =  2.0043
 <Sx>= 0.0000 <Sy>= 0.0000 <Sz>= 0.5000 <S**2>= 0.7614 S= 0.5057
 <L.S>= 0.000000000000E+00
 KE= 5.026722041836D+02 PE=-2.456586119718D+03 EE= 8.087614053674D+02
 Annihilation of the first spin contaminant:
 S**2 before annihilation     0.7614,   after     0.7501
 Leave Link  502 at Tue Feb 25 19:57:02 2014, MaxMem= 4026531840 cpu:    1689.2
 (Enter /usr/caen/gaussian-09revc/g09/l801.exe)
 Range of M.O.s used for correlation:     1   312
 NBasis=   312 NAE=    45 NBE=    44 NFC=     0 NFV=     0
 NROrb=    312 NOA=    45 NOB=    44 NVA=   267 NVB=   268
 Leave Link  801 at Tue Feb 25 19:57:02 2014, MaxMem= 4026531840 cpu:       0.3
 (Enter /usr/caen/gaussian-09revc/g09/l1101.exe)
 Using compressed storage, NAtomX=    30.
 Will process  31 centers per pass.
 Leave Link 1101 at Tue Feb 25 19:57:04 2014, MaxMem= 4026531840 cpu:      10.6
 (Enter /usr/caen/gaussian-09revc/g09/l1102.exe)
 Symmetrizing basis deriv contribution to polar:
 IMax=3 JMax=2 DiffMx= 0.00D+00
 Leave Link 1102 at Tue Feb 25 19:57:05 2014, MaxMem= 4026531840 cpu:       1.4
 (Enter /usr/caen/gaussian-09revc/g09/l1110.exe)
 Forming Gx(P) for the SCF density, NAtomX=    30.
 Integral derivatives from FoFDir/FoFCou, PRISM(SPDF).
 Do as many integral derivatives as possible in FoFDir.
 G2DrvN: MDV=    4026531496.
 G2DrvN: will do    31 centers at a time, making    1 passes doing MaxLOS=2.
 Calling FoFCou, ICntrl=  3107 FMM=F I1Cent=   0 AccDes= 0.00D+00.
 FoFCou: FMM=F IPFlag=           0 FMFlag=      100000 FMFlg1=           0
         NFxFlg=           0 DoJE=F BraDBF=F KetDBF=F FulRan=T
         Omega=  0.000000  0.000000  1.000000  0.000000  0.000000 ICntrl=    3107 IOpCl=  1
         NMat0=    1 NMatS0=    1 NMatT0=    0 NMatD0=    1 NMtDS0=    0 NMtDT0=    0
         I1Cent=           0 NGrid=           0.
 Symmetry not used in FoFCou.
 FoFDir/FoFCou used for L=0 through L=2.
 End of G2Drv Frequency-dependent properties file   721 does not exist.
 End of G2Drv Frequency-dependent properties file   722 does not exist.
 Leave Link 1110 at Tue Feb 25 20:00:10 2014, MaxMem= 4026531840 cpu:    1441.1
 (Enter /usr/caen/gaussian-09revc/g09/l1002.exe)
 Minotr:  UHF open shell wavefunction.
          IDoAtm=111111111111111111111111111111
          Direct CPHF calculation.
          Differentiating once with respect to nuclear coordinates.
          Requested convergence is 1.0D-06 RMS, and 1.0D-05 maximum.
          Secondary convergence is 1.0D-12 RMS, and 1.0D-12 maximum.
          NewPWx=T KeepS1=F KeepF1=F KeepIn=T MapXYZ=F SortEE=F KeepMc=T.
          MDV=    4026531536 using IRadAn=       2.
 Generate precomputed XC quadrature information.
          Keep R1 and R2 ints in memory in canonical form, NReq=2738891878.
 Symmetry not used in FoFDir.
 MinBra= 0 MaxBra= 2 Meth= 1.
 IRaf=       0 NMat=   1 IRICut=       1 DoRegI=T DoRafI=F ISym2E= 0 JSym2E=0.
          Solving linear equations simultaneously, MaxMat=       0.
          There are    93 degrees of freedom in the 1st order CPHF.  IDoFFX=5.
     87 vectors produced by pass  0 Test12= 2.56D-10 1.08D-07 XBig12= 2.57D-01 2.05D-01.
 AX will form    87 AO Fock derivatives at one time.
     87 vectors produced by pass  1 Test12= 2.56D-10 1.08D-07 XBig12= 4.66D-02 5.67D-02.
     87 vectors produced by pass  2 Test12= 2.56D-10 1.08D-07 XBig12= 1.41D-04 3.47D-03.
     87 vectors produced by pass  3 Test12= 2.56D-10 1.08D-07 XBig12= 9.89D-07 2.23D-04.
     58 vectors produced by pass  4 Test12= 2.56D-10 1.08D-07 XBig12= 3.53D-09 6.67D-06.
     11 vectors produced by pass  5 Test12= 2.56D-10 1.08D-07 XBig12= 1.15D-11 4.69D-07.
 Inverted reduced A of dimension   417 with in-core refinement.
 End of Minotr Frequency-dependent properties file   721 does not exist.
 End of Minotr Frequency-dependent properties file   722 does not exist.
 Leave Link 1002 at Tue Feb 25 20:04:39 2014, MaxMem= 4026531840 cpu:    2141.7
 (Enter /usr/caen/gaussian-09revc/g09/l601.exe)
 Copying SCF densities to generalized density rwf, IOpCl= 1 IROHF=0.

 **********************************************************************

            Population analysis using the SCF density.

 **********************************************************************

 Orbital symmetries:
 Alpha Orbitals:
       Occupied  (A) (A) (A) (A) (A) (A) (A) (A) (A) (A) (A) (A)
                 (A) (A) (A) (A) (A) (A) (A) (A) (A) (A) (A) (A)
                 (A) (A) (A) (A) (A) (A) (A) (A) (A) (A) (A) (A)
                 (A) (A) (A) (A) (A) (A) (A) (A) (A)
       Virtual   (A) (A) (A) (A) (A) (A) (A) (A) (A) (A) (A) (A)
                 (A) (A) (A) (A) (A) (A) (A) (A) (A) (A) (A) (A)
                 (A) (A) (A) (A) (A) (A) (A) (A) (A) (A) (A) (A)
                 (A) (A) (A) (A) (A) (A) (A) (A) (A) (A) (A) (A)
                 (A) (A) (A) (A) (A) (A) (A) (A) (A) (A) (A) (A)
                 (A) (A) (A) (A) (A) (A) (A) (A) (A) (A) (A) (A)
                 (A) (A) (A) (A) (A) (A) (A) (A) (A) (A) (A) (A)
                 (A) (A) (A) (A) (A) (A) (A) (A) (A) (A) (A) (A)
                 (A) (A) (A) (A) (A) (A) (A) (A) (A) (A) (A) (A)
                 (A) (A) (A) (A) (A) (A) (A) (A) (A) (A) (A) (A)
                 (A) (A) (A) (A) (A) (A) (A) (A) (A) (A) (A) (A)
                 (A) (A) (A) (A) (A) (A) (A) (A) (A) (A) (A) (A)
                 (A) (A) (A) (A) (A) (A) (A) (A) (A) (A) (A) (A)
                 (A) (A) (A) (A) (A) (A) (A) (A) (A) (A) (A) (A)
                 (A) (A) (A) (A) (A) (A) (A) (A) (A) (A) (A) (A)
                 (A) (A) (A) (A) (A) (A) (A) (A) (A) (A) (A) (A)
                 (A) (A) (A) (A) (A) (A) (A) (A) (A) (A) (A) (A)
                 (A) (A) (A) (A) (A) (A) (A) (A) (A) (A) (A) (A)
                 (A) (A) (A) (A) (A) (A) (A) (A) (A) (A) (A) (A)
                 (A) (A) (A) (A) (A) (A) (A) (A) (A) (A) (A) (A)
                 (A) (A) (A) (A) (A) (A) (A) (A) (A) (A) (A) (A)
                 (A) (A) (A) (A) (A) (A) (A) (A) (A) (A) (A) (A)
                 (A) (A) (A)
 Beta  Orbitals:
       Occupied  (A) (A) (A) (A) (A) (A) (A) (A) (A) (A) (A) (A)
                 (A) (A) (A) (A) (A) (A) (A) (A) (A) (A) (A) (A)
                 (A) (A) (A) (A) (A) (A) (A) (A) (A) (A) (A) (A)
                 (A) (A) (A) (A) (A) (A) (A) (A)
       Virtual   (A) (A) (A) (A) (A) (A) (A) (A) (A) (A) (A) (A)
                 (A) (A) (A) (A) (A) (A) (A) (A) (A) (A) (A) (A)
                 (A) (A) (A) (A) (A) (A) (A) (A) (A) (A) (A) (A)
                 (A) (A) (A) (A) (A) (A) (A) (A) (A) (A) (A) (A)
                 (A) (A) (A) (A) (A) (A) (A) (A) (A) (A) (A) (A)
                 (A) (A) (A) (A) (A) (A) (A) (A) (A) (A) (A) (A)
                 (A) (A) (A) (A) (A) (A) (A) (A) (A) (A) (A) (A)
                 (A) (A) (A) (A) (A) (A) (A) (A) (A) (A) (A) (A)
                 (A) (A) (A) (A) (A) (A) (A) (A) (A) (A) (A) (A)
                 (A) (A) (A) (A) (A) (A) (A) (A) (A) (A) (A) (A)
                 (A) (A) (A) (A) (A) (A) (A) (A) (A) (A) (A) (A)
                 (A) (A) (A) (A) (A) (A) (A) (A) (A) (A) (A) (A)
                 (A) (A) (A) (A) (A) (A) (A) (A) (A) (A) (A) (A)
                 (A) (A) (A) (A) (A) (A) (A) (A) (A) (A) (A) (A)
                 (A) (A) (A) (A) (A) (A) (A) (A) (A) (A) (A) (A)
                 (A) (A) (A) (A) (A) (A) (A) (A) (A) (A) (A) (A)
                 (A) (A) (A) (A) (A) (A) (A) (A) (A) (A) (A) (A)
                 (A) (A) (A) (A) (A) (A) (A) (A) (A) (A) (A) (A)
                 (A) (A) (A) (A) (A) (A) (A) (A) (A) (A) (A) (A)
                 (A) (A) (A) (A) (A) (A) (A) (A) (A) (A) (A) (A)
                 (A) (A) (A) (A) (A) (A) (A) (A) (A) (A) (A) (A)
                 (A) (A) (A) (A) (A) (A) (A) (A) (A) (A) (A) (A)
                 (A) (A) (A) (A)
 The electronic state is 2-A.
 Alpha  occ. eigenvalues --  -19.21053 -19.20383 -10.20400 -10.18664 -10.17838
 Alpha  occ. eigenvalues --  -10.17513 -10.17277 -10.17010 -10.16650 -10.15755
 Alpha  occ. eigenvalues --  -10.15642  -1.20345  -0.83707  -0.81249  -0.79880
 Alpha  occ. eigenvalues --   -0.75961  -0.69923  -0.68503  -0.68259  -0.61147
 Alpha  occ. eigenvalues --   -0.56341  -0.55861  -0.52328  -0.49690  -0.47959
 Alpha  occ. eigenvalues --   -0.47646  -0.47057  -0.45432  -0.44564  -0.43129
 Alpha  occ. eigenvalues --   -0.42784  -0.41421  -0.38694  -0.38481  -0.38402
 Alpha  occ. eigenvalues --   -0.37386  -0.36060  -0.35431  -0.34344  -0.32550
 Alpha  occ. eigenvalues --   -0.32404  -0.31401  -0.29512  -0.26926  -0.26038
 Alpha virt. eigenvalues --   -0.04992   0.03922   0.04550   0.05474   0.06663
 Alpha virt. eigenvalues --    0.06979   0.08112   0.09309   0.09402   0.10258
 Alpha virt. eigenvalues --    0.10994   0.11487   0.12308   0.12788   0.14278
 Alpha virt. eigenvalues --    0.14960   0.15106   0.16386   0.17484   0.17878
 Alpha virt. eigenvalues --    0.18533   0.19479   0.20148   0.21225   0.22754
 Alpha virt. eigenvalues --    0.23321   0.25042   0.26243   0.26936   0.28515
 Alpha virt. eigenvalues --    0.28777   0.30298   0.31180   0.32224   0.33914
 Alpha virt. eigenvalues --    0.35076   0.35700   0.37923   0.39245   0.40705
 Alpha virt. eigenvalues --    0.42291   0.43761   0.46037   0.47089   0.49053
 Alpha virt. eigenvalues --    0.50934   0.51770   0.52321   0.55000   0.55126
 Alpha virt. eigenvalues --    0.55880   0.56617   0.57478   0.57584   0.57854
 Alpha virt. eigenvalues --    0.58220   0.58817   0.59363   0.59524   0.59979
 Alpha virt. eigenvalues --    0.60587   0.61205   0.61367   0.62307   0.62577
 Alpha virt. eigenvalues --    0.63567   0.64285   0.64941   0.65121   0.66072
 Alpha virt. eigenvalues --    0.68349   0.69071   0.70194   0.72959   0.75941
 Alpha virt. eigenvalues --    0.76621   0.78479   0.81017   0.83115   0.84059
 Alpha virt. eigenvalues --    0.86046   0.89625   0.90747   0.93832   0.96553
 Alpha virt. eigenvalues --    0.98077   0.98533   0.99874   1.01909   1.06824
 Alpha virt. eigenvalues --    1.07575   1.09805   1.10672   1.12363   1.12997
 Alpha virt. eigenvalues --    1.17314   1.18834   1.22335   1.25608   1.26732
 Alpha virt. eigenvalues --    1.28388   1.32109   1.33325   1.35903   1.37526
 Alpha virt. eigenvalues --    1.39636   1.40241   1.40554   1.42258   1.44898
 Alpha virt. eigenvalues --    1.45349   1.45966   1.46770   1.47095   1.49603
 Alpha virt. eigenvalues --    1.50340   1.50837   1.52718   1.53223   1.53550
 Alpha virt. eigenvalues --    1.55011   1.55686   1.57247   1.57432   1.59286
 Alpha virt. eigenvalues --    1.60190   1.61503   1.63445   1.65106   1.65465
 Alpha virt. eigenvalues --    1.65759   1.67365   1.69177   1.69957   1.70825
 Alpha virt. eigenvalues --    1.71674   1.72325   1.73345   1.75783   1.77396
 Alpha virt. eigenvalues --    1.78180   1.78468   1.80313   1.81929   1.84140
 Alpha virt. eigenvalues --    1.87071   1.88157   1.90032   1.92121   1.93521
 Alpha virt. eigenvalues --    1.95673   1.98623   1.98921   2.00450   2.01719
 Alpha virt. eigenvalues --    2.03309   2.05668   2.07617   2.08648   2.10291
 Alpha virt. eigenvalues --    2.12455   2.13238   2.16056   2.17285   2.20836
 Alpha virt. eigenvalues --    2.22470   2.23653   2.27749   2.29517   2.31673
 Alpha virt. eigenvalues --    2.32347   2.32683   2.34726   2.36268   2.37878
 Alpha virt. eigenvalues --    2.38612   2.39006   2.42440   2.42986   2.43671
 Alpha virt. eigenvalues --    2.45444   2.46204   2.46610   2.48026   2.48803
 Alpha virt. eigenvalues --    2.50093   2.50697   2.50999   2.52711   2.54118
 Alpha virt. eigenvalues --    2.55361   2.55719   2.56245   2.59225   2.60157
 Alpha virt. eigenvalues --    2.60354   2.62689   2.64024   2.64719   2.66090
 Alpha virt. eigenvalues --    2.67227   2.69156   2.71311   2.72654   2.74902
 Alpha virt. eigenvalues --    2.75721   2.76729   2.78580   2.79312   2.81212
 Alpha virt. eigenvalues --    2.83467   2.85973   2.88501   2.89406   2.90396
 Alpha virt. eigenvalues --    2.90754   2.93218   2.95859   2.97340   2.99039
 Alpha virt. eigenvalues --    3.02056   3.06313   3.10641   3.15071   3.17969
 Alpha virt. eigenvalues --    3.29540   3.36913   3.40829   3.44233   3.46904
 Alpha virt. eigenvalues --    3.55969   3.71599   3.74983   3.75635   3.77543
 Alpha virt. eigenvalues --    3.78012   3.79205   3.80422   3.81441   3.82301
 Alpha virt. eigenvalues --    3.83297   3.84913   3.89399   3.97033   4.06241
 Alpha virt. eigenvalues --    4.17460   4.29299   4.29675   4.33506   4.42962
 Alpha virt. eigenvalues --    4.63821   4.68936   4.81102   4.86261   5.08116
 Alpha virt. eigenvalues --    6.05014  23.73987  23.81502  23.85504  23.87499
 Alpha virt. eigenvalues --   23.88169  23.91453  23.93380  23.94385  24.05661
 Alpha virt. eigenvalues --   49.71636  49.75671
  Beta  occ. eigenvalues --  -19.19593 -19.18604 -10.20503 -10.18649 -10.17840
  Beta  occ. eigenvalues --  -10.17513 -10.17279 -10.17010 -10.16650 -10.15755
  Beta  occ. eigenvalues --  -10.15642  -1.17177  -0.83716  -0.81244  -0.75979
  Beta  occ. eigenvalues --   -0.75472  -0.69970  -0.68503  -0.68265  -0.61144
  Beta  occ. eigenvalues --   -0.56328  -0.55710  -0.51479  -0.48165  -0.47548
  Beta  occ. eigenvalues --   -0.45851  -0.45324  -0.44410  -0.43123  -0.42692
  Beta  occ. eigenvalues --   -0.41367  -0.40013  -0.38694  -0.38457  -0.38355
  Beta  occ. eigenvalues --   -0.37373  -0.36057  -0.35423  -0.34325  -0.32546
  Beta  occ. eigenvalues --   -0.32400  -0.31392  -0.28736  -0.24865
  Beta virt. eigenvalues --   -0.09437  -0.04727   0.03918   0.04541   0.05471
  Beta virt. eigenvalues --    0.06678   0.07008   0.08133   0.09342   0.09412
  Beta virt. eigenvalues --    0.10258   0.11002   0.11521   0.12341   0.12846
  Beta virt. eigenvalues --    0.14335   0.15079   0.15154   0.16608   0.17666
  Beta virt. eigenvalues --    0.17895   0.18640   0.20169   0.20214   0.21876
  Beta virt. eigenvalues --    0.22812   0.23385   0.25062   0.26257   0.26965
  Beta virt. eigenvalues --    0.28568   0.28792   0.30313   0.31220   0.32203
  Beta virt. eigenvalues --    0.33935   0.35047   0.35723   0.37885   0.39238
  Beta virt. eigenvalues --    0.40732   0.42337   0.43780   0.46038   0.47144
  Beta virt. eigenvalues --    0.49121   0.50949   0.51765   0.52386   0.55108
  Beta virt. eigenvalues --    0.55139   0.55890   0.56664   0.57499   0.57599
  Beta virt. eigenvalues --    0.57858   0.58279   0.58830   0.59381   0.59551
  Beta virt. eigenvalues --    0.60031   0.60603   0.61227   0.61407   0.62366
  Beta virt. eigenvalues --    0.62648   0.63573   0.64388   0.64958   0.65152
  Beta virt. eigenvalues --    0.66100   0.68490   0.69117   0.70335   0.73360
  Beta virt. eigenvalues --    0.76478   0.78555   0.79087   0.82294   0.83864
  Beta virt. eigenvalues --    0.84540   0.86667   0.89958   0.90957   0.94648
  Beta virt. eigenvalues --    0.97249   0.98171   0.98565   1.00121   1.01978
  Beta virt. eigenvalues --    1.06936   1.08008   1.09915   1.10783   1.12382
  Beta virt. eigenvalues --    1.13132   1.17324   1.18847   1.22347   1.25623
  Beta virt. eigenvalues --    1.26757   1.28611   1.32422   1.33633   1.35959
  Beta virt. eigenvalues --    1.37555   1.39693   1.40529   1.40732   1.42363
  Beta virt. eigenvalues --    1.44909   1.45356   1.45982   1.46848   1.47180
  Beta virt. eigenvalues --    1.49630   1.50368   1.50841   1.52737   1.53261
  Beta virt. eigenvalues --    1.53644   1.55160   1.55729   1.57279   1.57460
  Beta virt. eigenvalues --    1.59305   1.60206   1.61645   1.63514   1.65092
  Beta virt. eigenvalues --    1.65632   1.65777   1.67369   1.69232   1.69962
  Beta virt. eigenvalues --    1.70852   1.71702   1.72333   1.73357   1.75803
  Beta virt. eigenvalues --    1.77389   1.78154   1.78461   1.80319   1.81887
  Beta virt. eigenvalues --    1.84210   1.87121   1.88184   1.90061   1.92095
  Beta virt. eigenvalues --    1.93482   1.95698   1.98629   1.98912   2.00442
  Beta virt. eigenvalues --    2.01704   2.03329   2.05680   2.07639   2.08671
  Beta virt. eigenvalues --    2.10277   2.12490   2.13286   2.16086   2.17385
  Beta virt. eigenvalues --    2.20878   2.22490   2.23732   2.27784   2.29547
  Beta virt. eigenvalues --    2.31790   2.32378   2.34639   2.36219   2.36455
  Beta virt. eigenvalues --    2.38275   2.38645   2.39181   2.42733   2.43045
  Beta virt. eigenvalues --    2.43696   2.45494   2.46250   2.46632   2.48074
  Beta virt. eigenvalues --    2.48892   2.50151   2.50717   2.51032   2.52728
  Beta virt. eigenvalues --    2.54119   2.55445   2.55894   2.56834   2.59307
  Beta virt. eigenvalues --    2.60369   2.60624   2.62843   2.64035   2.64814
  Beta virt. eigenvalues --    2.66425   2.67845   2.69179   2.71412   2.72934
  Beta virt. eigenvalues --    2.75247   2.76023   2.78539   2.79200   2.79671
  Beta virt. eigenvalues --    2.83226   2.84152   2.86135   2.88579   2.90066
  Beta virt. eigenvalues --    2.90735   2.90980   2.93321   2.96581   2.99395
  Beta virt. eigenvalues --    3.00205   3.02648   3.07133   3.10699   3.15207
  Beta virt. eigenvalues --    3.19337   3.29801   3.41174   3.41758   3.45216
  Beta virt. eigenvalues --    3.47045   3.56849   3.72365   3.75003   3.75696
  Beta virt. eigenvalues --    3.77543   3.78020   3.79261   3.80443   3.81579
  Beta virt. eigenvalues --    3.82342   3.83322   3.84963   3.90239   3.97033
  Beta virt. eigenvalues --    4.06238   4.17458   4.29300   4.29672   4.33484
  Beta virt. eigenvalues --    4.42944   4.69341   4.71027   4.82805   4.92840
  Beta virt. eigenvalues --    5.09682   6.06716  23.73949  23.81502  23.85504
  Beta virt. eigenvalues --   23.87497  23.88168  23.91448  23.93380  23.94385
  Beta virt. eigenvalues --   24.05599  49.73280  49.77247
          Condensed to atoms (all electrons):
              1          2          3          4          5          6
     1  C    4.808704   0.406527   0.405913   0.399973   0.365626  -0.022204
     2  H    0.406527   0.581971  -0.032835  -0.027669  -0.040647   0.004498
     3  H    0.405913  -0.032835   0.578380  -0.027010  -0.037365  -0.005336
     4  H    0.399973  -0.027669  -0.027010   0.572441  -0.027381  -0.003730
     5  C    0.365626  -0.040647  -0.037365  -0.027381   5.306349   0.226299
     6  H   -0.022204   0.004498  -0.005336  -0.003730   0.226299   0.513012
     7  C   -0.058332  -0.004067  -0.005427   0.007599   0.345594  -0.023791
     8  H   -0.001817   0.004989  -0.001326  -0.000131  -0.040106   0.004685
     9  H   -0.005876  -0.001302   0.005443  -0.000064  -0.045161  -0.006609
    10  C    0.006185   0.000021   0.000058  -0.000328  -0.043699  -0.004348
    11  H   -0.000324   0.000005   0.000021   0.000010  -0.010097  -0.000507
    12  H    0.000315  -0.000022  -0.000007  -0.000019   0.002831   0.001244
    13  C   -0.000205  -0.000011  -0.000032   0.000012   0.005740  -0.000185
    14  H   -0.000023   0.000006  -0.000012   0.000001  -0.000321  -0.000020
    15  H    0.000005  -0.000009   0.000006   0.000001   0.000454   0.000009
    16  C    0.000003   0.000000   0.000000   0.000000  -0.000209  -0.000013
    17  H    0.000000   0.000000   0.000000   0.000000   0.000002   0.000001
    18  C    0.000000   0.000000   0.000000   0.000000   0.000003   0.000000
    19  H    0.000000   0.000000   0.000000   0.000000   0.000000   0.000000
    20  H    0.000000   0.000000   0.000000   0.000000   0.000000   0.000000
    21  H    0.000000   0.000000   0.000000   0.000000   0.000001   0.000000
    22  C   -0.061159  -0.006543   0.007899  -0.008207   0.483355  -0.020502
    23  H    0.005357  -0.000127  -0.000358  -0.000010  -0.035383   0.003179
    24  H   -0.008628   0.000414   0.000257   0.003095  -0.035523   0.002353
    25  C    0.000000   0.000000   0.000000   0.000000   0.000007  -0.000005
    26  H    0.000000   0.000000   0.000000   0.000000  -0.000001   0.000001
    27  H    0.000000   0.000000   0.000000   0.000000   0.000000   0.000002
    28  H   -0.000001   0.000000   0.000000   0.000000  -0.000011   0.000002
    29  O    0.001023  -0.000219  -0.000050   0.000930  -0.012033  -0.069988
    30  O    0.002295  -0.000067   0.001560   0.000685  -0.074386   0.134387
              7          8          9         10         11         12
     1  C   -0.058332  -0.001817  -0.005876   0.006185  -0.000324   0.000315
     2  H   -0.004067   0.004989  -0.001302   0.000021   0.000005  -0.000022
     3  H   -0.005427  -0.001326   0.005443   0.000058   0.000021  -0.000007
     4  H    0.007599  -0.000131  -0.000064  -0.000328   0.000010  -0.000019
     5  C    0.345594  -0.040106  -0.045161  -0.043699  -0.010097   0.002831
     6  H   -0.023791   0.004685  -0.006609  -0.004348  -0.000507   0.001244
     7  C    4.896565   0.401882   0.411605   0.369111  -0.032022  -0.045818
     8  H    0.401882   0.600491  -0.039125  -0.034869  -0.009202   0.008595
     9  H    0.411605  -0.039125   0.602587  -0.042682   0.009536  -0.007074
    10  C    0.369111  -0.034869  -0.042682   4.945779   0.394626   0.408626
    11  H   -0.032022  -0.009202   0.009536   0.394626   0.612544  -0.039320
    12  H   -0.045818   0.008595  -0.007074   0.408626  -0.039320   0.584695
    13  C   -0.049059  -0.004926  -0.004623   0.365496  -0.037863  -0.034628
    14  H   -0.005164  -0.000652   0.005064  -0.042838   0.009420  -0.008366
    15  H   -0.005588   0.005326  -0.001019  -0.039611  -0.007117   0.008626
    16  C    0.006137  -0.000197   0.000202  -0.053088  -0.003707  -0.004929
    17  H   -0.000232   0.000049   0.000006  -0.007322   0.006063  -0.000355
    18  C   -0.000246  -0.000020  -0.000002   0.007636   0.000078  -0.000038
    19  H   -0.000013   0.000007  -0.000014  -0.000056   0.000021   0.000021
    20  H    0.000013   0.000000   0.000001  -0.000409  -0.000006   0.000013
    21  H   -0.000027  -0.000013   0.000007   0.000056   0.000014  -0.000007
    22  C   -0.061027  -0.007790   0.008789  -0.009516   0.003995  -0.001834
    23  H   -0.009997   0.000535   0.000224   0.002396   0.002199  -0.000274
    24  H    0.005716  -0.000205  -0.000249  -0.000161   0.000180  -0.000080
    25  C    0.000087  -0.000007  -0.000032  -0.005888  -0.001143   0.001775
    26  H    0.000011   0.000002  -0.000002   0.000050  -0.000105  -0.000110
    27  H   -0.000086   0.000006  -0.000014  -0.000842   0.000112   0.000519
    28  H    0.000057  -0.000014   0.000043   0.002248   0.000562  -0.000286
    29  O    0.001046  -0.000203  -0.000009   0.000667  -0.000411   0.001857
[...]
 025743,0.00059525,-0.00148160,-0.00046712,-0.00021387,0.00019578,-0.00
 024068,-0.00027848,-0.00004626,0.00002921,0.00027063,-0.00009152,0.000
 02946,-0.00007160,-0.00012518,0.00015350,0.00002682,0.00004749,0.00001
 867,0.00007302,0.00003796,0.00000248,0.00001123,-0.00002336,-0.0000357
 2,0.00001125,-0.00001388,0.00000713,0.00001366,-0.00000658,0.00001300,
 0.00000383,0.00000292,-0.00000115,0.00000179,-0.00000578,-0.00000153,-
 0.00000058,0.00000125,0.00000001,-0.00000067,-0.00701005,-0.03580779,-
 0.01397154,0.00999356,0.00297801,0.00300271,0.00971997,0.03441004,-0.0
 0080817,0.00164568,-0.00054204,-0.00009513,0.00031528,0.00009300,0.000
 24944,0.00013617,0.00014908,0.00099806,-0.00018260,-0.00016104,-0.0251
 6895,-0.00459685,-0.00127242,0.00033236,0.00272026,-0.00049076,0.00220
 553,-0.00249721,-0.00186638,-0.00058070,-0.00030282,-0.00032898,-0.000
 90943,-0.00047249,-0.00014559,0.00083307,0.00005459,-0.00027292,-0.000
 16882,0.00000896,0.00042241,-0.00004494,0.00009892,-0.00007122,-0.0001
 9975,0.00010915,0.00029256,0.00012694,0.00002043,0.00005505,0.00004911
 ,0.00003256,-0.00001683,-0.00001943,-0.00000717,-0.00003036,-0.0000156
 8,0.00000058,0.00001242,-0.00000550,0.00000757,0.00001018,0.00000204,0
 .00000024,-0.00000060,-0.00000499,-0.00000099,-0.00000175,0.00000186,0
 .00000096,-0.00000121,-0.09438744,-0.01648472,-0.08569963,0.01577221,-
 0.00083848,0.00984802,0.10370074,0.01695137,0.08359282,-0.00005167,-0.
 00004254,-0.00000813,0.00002113,-0.00001552,0.00000147,0.00001277,-0.0
 0000121,-0.00001188,-0.00002806,0.00000949,0.00000097,0.00000062,0.000
 00419,-0.00008886,-0.00002968,0.00004022,-0.00005562,-0.00003891,0.000
 00183,-0.00012274,-0.00001250,-0.00023582,0.00008577,0.00009039,-0.000
 02144,-0.00005563,0.00059877,0.00098303,-0.00003801,-0.00004803,0.0000
 5902,-0.00029145,-0.00082242,0.00051428,0.00020909,0.00074019,0.026445
 25,-0.00957619,0.00087093,-0.00083626,-0.00055888,-0.00428503,0.003501
 05,0.00152001,-0.07868746,-0.00106081,0.00054085,-0.00008226,0.0019305
 8,-0.00063269,-0.00314693,-0.03060245,0.01091796,0.00110776,0.00056077
 ,0.00048177,0.00075833,-0.00079293,0.00035402,-0.00529261,-0.00372251,
 -0.00115463,-0.00006815,0.00014858,0.00014121,-0.00000210,0.00002235,-
 0.00000592,-0.00000734,-0.00001432,-0.00002257,0.57110094,-0.00004484,
 -0.00002440,0.00000456,0.00000467,-0.00000641,-0.00000437,0.00000212,-
 0.00000306,-0.00000612,-0.00000717,0.00001123,0.00000512,-0.00007470,0
 .00017179,0.00001132,-0.00002945,0.00003467,-0.00000027,-0.00065122,-0
 .00054440,0.00011942,0.00015490,-0.00009351,-0.00010278,0.00001446,-0.
 00002079,-0.00004413,0.00058342,0.00106861,-0.00040656,0.00011656,0.00
 000564,0.00016903,-0.00014729,-0.00073452,0.00054135,0.00537749,-0.023
 34636,0.00513966,-0.00127627,0.00108066,0.00084597,0.00211175,-0.00028
 844,-0.00055112,-0.00405250,-0.16237137,0.03351446,-0.00016299,-0.0018
 0294,0.00115891,-0.00685210,-0.02179696,0.00579891,0.00137506,0.000850
 98,0.00052091,0.00171909,0.00119510,0.00006961,-0.00145868,-0.00037621
 ,-0.00063895,-0.00001983,0.00001966,0.00001500,-0.00000668,0.00002041,
 -0.00003251,0.00000798,-0.00001224,-0.00000181,0.00334058,0.47364657,0
 .00003864,0.00003759,0.00004532,-0.00000586,-0.00000441,-0.00000641,-0
 .00000455,-0.00000643,-0.00001034,0.00002921,-0.00000589,-0.00000479,-
 0.00001146,-0.00003543,-0.00003109,-0.00002347,-0.00000323,0.00005128,
 -0.00000310,-0.00009870,0.00037668,0.00006060,-0.00002907,-0.00009645,
 -0.00001008,-0.00002401,-0.00004926,0.00024101,0.00001857,-0.00035997,
 0.00010438,-0.00002689,0.00011740,-0.00019829,-0.00021013,0.00045567,-
 0.00144970,-0.00998938,0.00416054,0.00017551,-0.00143590,0.00081228,0.
 00232925,-0.00267069,-0.00032834,0.00070266,0.03572413,-0.09299727,0.0
 0105233,0.03333313,-0.01258576,0.00070863,-0.00662151,0.00332560,-0.00
 037932,-0.00131947,0.00073462,0.00028045,0.00034018,-0.00009381,-0.001
 87670,-0.00201111,0.00015684,0.00001373,-0.00002777,-0.00003831,-0.000
 00789,0.00000485,-0.00003770,0.00001834,-0.00000465,0.00000698,-0.0002
 3554,0.03942187,0.54196849,-0.00002864,-0.00003400,-0.00002396,0.00000
 555,0.00000729,0.00000129,0.00000864,0.00000094,0.00000206,-0.00002912
 ,0.00000280,0.00000083,0.00005159,0.00005636,-0.00002191,0.00004089,-0
 .00001862,-0.00002019,0.00015273,0.00013066,-0.00013943,-0.00012052,0.
 00008316,0.00003733,-0.00001220,0.00000012,0.00002032,-0.00010087,-0.0
 0020756,0.00037308,0.00000775,0.00004957,-0.00008295,0.00038599,0.0002
 8643,-0.00017447,0.00067269,-0.00073371,-0.00062422,0.00000013,-0.0001
 0701,0.00005935,0.00009536,0.00005155,0.00007397,-0.00007437,-0.001077
 43,-0.00074519,0.00002595,0.00037013,-0.00047059,0.00073335,-0.0009849
 3,-0.00011032,-0.00002948,-0.00002427,-0.00004357,0.00044809,0.0000266
 8,0.00010016,0.00019774,0.00004068,-0.00017223,-0.00000566,0.00003172,
 0.00003241,0.00002199,0.00000545,0.00004364,-0.00002416,0.00000283,0.0
 0000006,-0.20765165,0.10463479,0.07025318,0.22469187,0.00003800,0.0000
 3558,0.00001677,-0.00000897,-0.00000010,-0.00000126,-0.00000764,-0.000
 00186,0.00000066,0.00002458,-0.00000668,-0.00000167,0.00002118,-0.0000
 5589,0.00001601,-0.00000064,-0.00002391,0.00003803,0.00018999,0.000202
 67,0.00000175,-0.00006016,0.00010340,-0.00000624,-0.00003267,-0.000001
 10,0.00001483,-0.00079219,-0.00026746,-0.00002184,0.00006863,0.0000101
 8,0.00004630,0.00021239,0.00028339,-0.00013501,-0.00206265,-0.00540786
 ,0.00350463,-0.00028599,0.00023688,0.00003649,0.00166813,-0.00127504,-
 0.00043418,0.02443400,-0.01633751,-0.01214237,-0.00007935,0.00114322,0
 .00031914,0.00160284,0.00116006,-0.00076128,-0.00011034,-0.00009141,-0
 .00000233,-0.00116930,-0.00000211,0.00024021,-0.00011653,0.00051665,0.
 00023746,0.00002406,-0.00005554,-0.00005143,-0.00000875,-0.00000506,-0
 .00001619,0.00001409,0.00000412,0.00000610,0.10338466,-0.11325914,-0.0
 4535139,-0.11446769,0.12530044,-0.00000506,-0.00000121,-0.00000471,0.0
 0000106,-0.00000268,0.00000208,-0.00000130,0.00000175,0.00000078,-0.00
 000013,0.00000122,0.00000132,-0.00000302,-0.00000473,0.00000367,-0.000
 00675,0.00001252,-0.00001727,0.00001078,0.00003188,-0.00005822,-0.0000
 1866,-0.00000926,0.00002918,-0.00000621,0.00002433,0.00001293,0.000057
 25,0.00009838,0.00014507,0.00002091,-0.00004422,0.00000938,0.00000599,
 -0.00001878,-0.00013161,0.00041266,0.00199537,-0.00060810,-0.00015267,
 0.00032822,0.00040077,-0.00037986,0.00039071,0.00055851,-0.01041279,0.
 00679669,0.00366160,-0.00040825,-0.00059670,0.00047012,-0.00020309,-0.
 00041380,0.00012442,0.00016820,-0.00007313,-0.00006017,-0.00001739,-0.
 00016110,0.00025100,-0.00024659,-0.00002416,-0.00011045,-0.00000258,0.
 00000356,0.00000572,-0.00000065,-0.00000165,0.00000310,-0.00000013,0.0
 0000138,-0.00000141,0.07030277,-0.04611044,-0.07760605,-0.07756540,0.0
 4844416,0.08042996,0.00000033,0.00000633,-0.00000062,-0.00000111,-0.00
 000328,0.00000269,-0.00000359,0.00000405,0.00000268,0.00000412,0.00000
 070,0.00000045,-0.00001106,-0.00000759,0.00002857,-0.00001579,0.000032
 19,-0.00003156,0.00000937,0.00000423,0.00000093,0.00001532,0.00000108,
 0.00000511,-0.00002531,0.00004092,0.00003441,-0.00016302,0.00006458,0.
 00004151,0.00007479,-0.00012727,0.00014832,-0.00007385,-0.00007897,-0.
 00015235,0.00025042,-0.00013011,-0.00118020,0.00014917,0.00017376,0.00
 014573,-0.00003217,-0.00004233,0.00015490,-0.00115528,0.00024438,0.000
 30175,0.00066186,-0.00001129,0.00001704,0.00023657,0.00023146,0.001055
 71,0.00018737,-0.00020738,-0.00010967,0.00000582,0.00000282,0.00012019
 ,-0.00007000,0.00010228,-0.00020465,0.00001927,-0.00001366,-0.00001531
 ,0.00000177,-0.00001107,0.00000046,-0.00000044,0.00000354,0.00000542,-
 0.04777872,-0.00039715,-0.00985175,0.00153217,-0.00045916,0.02632906,0
 .04642049,-0.00000166,-0.00000394,-0.00000016,0.00000078,0.00000113,0.
 00000148,0.00000222,0.00000206,0.00000015,-0.00000379,-0.00000068,-0.0
 0000113,0.00000620,-0.00000346,-0.00001107,0.00000497,0.00000770,-0.00
 001197,0.00006078,0.00002828,-0.00001751,-0.00001253,0.00000979,0.0000
 0755,0.00002330,-0.00000786,-0.00000730,0.00009681,-0.00000381,-0.0000
 6910,-0.00017270,-0.00005046,-0.00008270,0.00003675,0.00000767,-0.0000
 4135,-0.00064047,0.00196436,0.00122365,0.00020846,-0.00016684,-0.00087
 803,-0.00028334,0.00031640,-0.00036244,0.00126626,-0.00108749,0.032849
 43,-0.00020198,-0.00588776,0.00246831,0.00100120,0.00166258,0.00070797
 ,-0.00033132,-0.00008909,-0.00063827,-0.00008827,-0.00009162,-0.000103
 58,0.00021909,0.00021203,-0.00035775,-0.00000077,0.00000367,0.00000241
 ,0.00000360,-0.00000861,0.00000888,-0.00000549,-0.00000038,0.00000122,
 -0.00037625,-0.04626271,-0.00386168,-0.00184594,-0.00073287,-0.0164590
 5,0.00032379,0.05090826,-0.00001688,-0.00001191,-0.00001672,0.00000141
 ,-0.00000080,0.00000242,0.00000053,0.00000496,0.00000697,-0.00001057,0
 .00000355,0.00000110,-0.00000823,0.00002963,0.00002313,-0.00000114,0.0
 0004195,-0.00005327,-0.00000643,-0.00003275,-0.00003882,-0.00000456,0.
 00000362,0.00000826,-0.00003108,0.00003956,0.00003878,-0.00016786,0.00
 019140,0.00005878,0.00013675,-0.00007180,0.00013662,-0.00008729,-0.000
 00715,-0.00019903,0.00045791,-0.00090678,0.00056696,-0.00063182,0.0006
 3211,0.00061454,0.00001486,0.00002230,0.00039145,-0.00062460,0.0008271
 5,-0.01393328,0.00018968,0.00274347,0.00073830,-0.00036587,-0.00079253
 ,0.00056585,0.00064940,0.00053601,0.00047269,-0.00004108,0.00001533,-0
 .00003950,0.00004827,0.00007731,0.00040911,0.00001892,0.00000050,0.000
 00084,0.00000895,-0.00000178,0.00001078,-0.00001022,0.00000301,0.00000
 368,-0.00979286,-0.00344867,-0.29951948,-0.00059005,-0.00038729,-0.010
 42034,0.01097095,0.00096782,0.32850986,0.00002204,0.00001634,-0.000000
 19,-0.00000531,0.00000428,-0.00000058,-0.00000335,0.00000066,0.0000044
 3,0.00000901,-0.00000334,-0.00000122,0.00003306,-0.00004939,0.00001237
 ,-0.00000453,-0.00000652,0.00001495,0.00017671,0.00023396,-0.00004387,
 -0.00006610,0.00008232,0.00001839,-0.00001416,0.00000762,0.00001755,-0
 .00090788,0.00044863,0.00016588,0.00001488,-0.00009365,-0.00000312,-0.
 00074453,0.00144828,-0.00023820,-0.00008834,-0.00010075,0.00036783,-0.
 00002372,0.00003745,0.00001968,0.00010596,-0.00013998,-0.00007759,0.00
 051161,0.00073814,0.00076567,0.00026068,-0.00038641,0.00051384,0.00072
 632,-0.00053575,0.00082393,0.00002223,0.00015864,-0.00002364,0.0004494
 8,0.00015972,-0.00015225,0.00001489,-0.00013357,-0.00025877,0.00001689
 ,-0.00003183,-0.00002635,-0.00000200,-0.00000758,-0.00000681,0.0000033
 5,0.00000237,0.00000109,-0.22732029,-0.10429710,-0.06199571,-0.0209393
 7,-0.01202571,-0.00788757,-0.00026395,0.00071453,-0.00011219,0.2480232
 0,-0.00002118,-0.00003436,-0.00002340,0.00000256,0.00001018,0.00000033
 ,0.00000592,0.00000167,0.00000649,-0.00002628,-0.00000030,0.00000081,0
 .00008438,0.00003434,0.00000587,0.00005651,-0.00001930,-0.00002595,0.0
 0039597,0.00033722,-0.00018512,-0.00020536,0.00017738,0.00004418,-0.00
 006308,0.00002923,0.00007506,-0.00013930,-0.00065800,0.00034690,0.0000
 9808,-0.00004851,0.00006986,0.00144596,0.00013505,-0.00031153,-0.00095
 208,0.00093994,-0.00043982,0.00009777,-0.00008762,0.00001880,0.0000021
 7,0.00018468,0.00014464,-0.02573136,-0.01294133,-0.01054419,0.00020914
 ,0.00131664,0.00025039,0.00163703,-0.00571518,0.00313861,0.00030330,0.
 00013880,-0.00005898,-0.00004978,0.00023416,0.00019132,-0.00183692,-0.
 00098639,-0.00032223,0.00001962,0.00000521,-0.00000339,0.00002833,-0.0
 0000203,0.00005307,-0.00002921,0.00000765,0.00000692,-0.10302007,-0.10
 712748,-0.03517609,0.01375659,0.00844594,0.00580511,0.00027176,-0.0007
 1173,-0.00042776,0.11370906,0.11635445,0.00000245,-0.00000610,-0.00000
 980,-0.00000112,0.00000576,-0.00000162,0.00000140,-0.00000387,0.000001
 05,-0.00000351,-0.00000204,0.00000160,0.00002233,0.00000013,-0.0000022
 4,0.00003080,-0.00006084,0.00004527,0.00007148,0.00014041,-0.00017322,
 -0.00005647,0.00007357,0.00001688,0.00001968,-0.00004133,-0.00001426,-
 0.00037624,-0.00033145,0.00052724,-0.00004619,0.00015522,-0.00024566,0
 .00030339,0.00026626,0.00007670,-0.00037722,-0.00060018,0.00011466,-0.
 00009221,-0.00003686,-0.00000267,0.00014300,-0.00002624,-0.00006142,0.
 01171100,0.00541044,0.00276796,0.00037748,-0.00065114,0.00049999,-0.00
 019414,0.00230608,-0.00055417,0.00023368,0.00032289,0.00035997,-0.0003
 3170,-0.00003010,-0.00008354,0.00050539,0.00060929,0.00058935,-0.00001
 710,-0.00000110,0.00000633,-0.00000796,0.00001301,0.00000453,0.0000032
 9,-0.00000095,-0.00000731,-0.06192703,-0.03599757,-0.06841610,0.009787
 18,0.00641087,0.00289563,-0.02785081,-0.01534593,-0.00838565,0.0681040
 7,0.03735585,0.07009243,-0.00112628,-0.00111060,0.00077420,0.00042099,
 -0.00034791,-0.00008272,-0.00002248,0.00005199,-0.00003354,0.00017038,
 -0.00002331,0.00002429,0.00159459,0.00293078,-0.01146125,0.00495633,-0
 .02171290,-0.00794172,0.00056030,-0.00173062,0.00111533,-0.00051552,-0
 .00018161,0.00007939,0.00016401,0.00007356,0.00001209,0.00003446,0.000
 03258,-0.00009142,0.00012736,0.00007846,-0.00011653,-0.00049257,-0.000
 10139,0.00005490,0.00005282,0.00011842,0.00003823,-0.00003122,-0.00002
 535,-0.00003287,0.00003579,0.00000517,0.00000062,0.00001471,-0.0000673
 9,-0.00002928,0.00000567,0.00001181,-0.00001369,-0.00001788,0.00004155
 ,0.00001319,0.00000077,-0.00000726,-0.00001159,-0.00003457,0.00000498,
 0.00000392,0.00001145,0.00000172,-0.00000214,-0.01498535,0.01045912,0.
 00076703,0.00055404,-0.00613991,0.00320251,0.00227091,0.00413558,-0.00
 218712,-0.00001290,0.00000916,0.00001628,-0.00002102,0.00002022,-0.000
 00149,-0.00001317,-0.00001235,-0.00002633,0.00000016,-0.00001548,0.000
 03429,0.03787410,-0.00348489,-0.00495718,0.00476059,0.00189545,-0.0016
 4673,-0.00044155,-0.00029902,0.00038773,0.00010929,0.00053793,0.000222
 01,-0.00004233,-0.00563188,0.00642060,-0.04548042,-0.02005006,-0.06910
 013,-0.02022134,0.00262719,-0.00675579,0.00464782,-0.00283245,-0.00083
 797,-0.00003670,0.00051517,0.00036325,0.00013463,0.00065393,-0.0010703
 0,-0.00034131,-0.00021408,0.00010485,0.00027809,-0.00049988,0.00037409
 ,-0.00038115,-0.00019577,0.00058608,0.00030112,0.00005261,-0.00002737,
 0.00001315,0.00020592,0.00014549,-0.00002258,0.00002617,-0.00025231,-0
 .00016260,-0.00001825,0.00002588,0.00002036,-0.00007944,0.00015700,0.0
 0004496,0.00001335,-0.00002124,-0.00001137,-0.00010716,0.00000506,0.00
 000795,0.00004709,0.00002815,-0.00001477,0.00824644,0.02654178,-0.0104
 9324,-0.00054851,-0.00337590,0.00362210,-0.00112520,-0.00564842,0.0048
 4853,-0.00021689,-0.00002271,0.00002498,-0.00005004,0.00007673,-0.0000
 0565,-0.00000043,-0.00001248,-0.00002836,0.00003690,-0.00002373,0.0000
 4707,0.04498528,0.12878401,-0.00133552,-0.00052028,-0.00107956,-0.0001
 0872,0.00056878,0.00049804,-0.00010160,-0.00018862,-0.00030824,-0.0001
 1646,-0.00001065,0.00054340,0.00138800,0.01562002,-0.00968840,-0.01100
 448,-0.03321930,-0.01728550,0.00127131,-0.00088903,-0.00084151,0.00030
 631,0.00039518,0.00043145,-0.00015174,-0.00005118,-0.00020220,0.000328
 73,-0.00119282,0.00095842,0.00035571,0.00007884,-0.00038045,-0.0006231
 4,0.00030577,-0.00044170,0.00005645,0.00045686,-0.00026977,-0.00012693
 ,-0.00010057,-0.00007818,0.00013452,0.00010537,0.00003053,0.00004584,-
 0.00020409,0.00004877,0.00001164,0.00002511,-0.00005564,-0.00004984,0.
 00011346,-0.00000384,-0.00000245,-0.00002058,-0.00002096,-0.00006226,-
 0.00000302,0.00001202,0.00003851,0.00004038,-0.00000425,0.00434910,0.0
 0660105,0.00640696,-0.00007358,0.00312620,-0.00171468,0.00052181,0.001
 52158,-0.00107287,-0.00019124,-0.00005409,-0.00004354,0.00000203,0.000
 05307,-0.00000120,-0.00004060,-0.00001153,-0.00006044,0.00001259,0.000
 02386,0.00013289,0.09558454,0.15336910,0.48564184,0.00057063,0.0004415
 4,-0.00018583,-0.00006285,-0.00014810,-0.00035036,0.00009592,-0.000220
 90,-0.00020324,0.00019797,-0.00012613,0.00005763,0.00394920,-0.0147900
 6,0.01974974,-0.01954000,0.01757075,0.00059110,0.00069171,0.00254255,-
 0.00136169,0.00048436,0.00001583,-0.00013162,-0.00028061,-0.00001080,-
 0.00032230,-0.00033645,0.00077722,-0.00013889,-0.00012542,-0.00021740,
 0.00021106,0.00007801,-0.00055829,0.00011448,0.00005086,-0.00017432,0.
 00011592,0.00003678,0.00004038,0.00001398,-0.00010041,-0.00008123,-0.0
 0001126,0.00001142,0.00003907,-0.00003797,-0.00000638,-0.00000998,0.00
 002376,0.00000994,-0.00002274,0.00001445,0.00000355,0.00000623,0.00000
 044,-0.00000051,0.00000576,-0.00000151,-0.00001058,-0.00001972,0.00000
 219,0.00686130,-0.01185741,-0.00784069,-0.00024199,0.00259721,-0.00142
 548,-0.00043270,-0.00080199,0.00034069,0.00006489,0.00002597,0.0000292
 3,-0.00003543,-0.00001504,0.00001092,0.00003860,0.00000814,0.00003147,
 -0.00000693,-0.00003407,-0.00006921,-0.03157588,-0.02448947,-0.0904185
 4,0.03961100,-0.00023913,0.00748123,-0.00351289,-0.00084291,0.00034918
 ,-0.00066436,0.00100851,-0.00103556,-0.00177930,0.00037417,-0.00045446
 ,0.00003698,-0.00117585,-0.06120741,0.09858989,0.01637897,0.05247997,-
 0.00105413,0.00175853,0.00700109,-0.00361514,0.00102704,0.00013012,-0.
 00090313,-0.00172049,-0.00060968,-0.00159120,-0.00087391,-0.00035790,0
 .00012156,0.00030006,-0.00006358,-0.00031670,-0.00040728,0.00006163,0.
 00032595,-0.00006836,0.00018044,-0.00007374,-0.00007829,-0.00003388,-0
 .00004012,0.00002947,0.00000560,0.00001587,-0.00002597,-0.00005405,0.0
 0001447,0.00001287,0.00000099,-0.00002207,-0.00000875,0.00001406,0.000
 00498,-0.00000406,-0.00000195,-0.00000696,-0.00000303,-0.00000515,-0.0
 0000016,0.00000345,0.00000804,0.00000153,-0.01422496,-0.04838727,-0.01
 228469,0.00025848,0.00145998,-0.00109349,0.00047760,0.00220230,-0.0015
 8033,0.00001315,-0.00001168,0.00000853,0.00001345,0.00000429,-0.000008
 71,-0.00001818,-0.00000212,-0.00002212,0.00001269,0.00000343,0.0000188
 5,-0.03148429,-0.07047044,-0.14593888,0.02950701,0.11131276,0.00130535
 ,-0.00005782,0.00099823,-0.00011740,-0.00037821,-0.00009410,-0.0003153
 1,0.00086354,0.00095088,-0.00011800,0.00026990,-0.00062454,-0.00250697
 ,-0.00678319,-0.00661327,0.00328000,0.01125278,-0.01767957,-0.00152425
 ,0.00030352,0.00067799,-0.00005710,-0.00040322,-0.00011023,0.00093458,
 0.00045584,0.00072077,-0.00002762,0.00168653,-0.00108912,-0.00055099,-
 0.00006580,0.00061522,0.00080961,-0.00052722,0.00032103,-0.00001735,-0
 .00065479,0.00024389,0.00020624,0.00014121,0.00014566,-0.00019439,-0.0
 0015192,-0.00002271,-0.00003645,0.00028653,-0.00003648,-0.00002621,-0.
 00003360,0.00009212,0.00007104,-0.00015662,-0.00001106,0.00000745,0.00
 002880,0.00003876,0.00008852,0.00000509,-0.00001436,-0.00005212,-0.000
 05460,0.00000617,-0.00356670,0.00681092,-0.02898586,-0.00074143,0.0031
 1788,-0.00200892,0.00137814,0.00322997,-0.00250292,0.00021398,0.000063
 28,0.00001298,-0.00000244,-0.00007398,0.00001427,0.00007164,0.00002167
 ,0.00010641,-0.00001422,-0.00001964,-0.00017484,-0.07968910,-0.0945463
 6,-0.46115139,0.08119150,0.07536952,0.51617500\\-0.00000097,-0.0000014
 0,-0.00000032,-0.00000023,-0.00000103,0.,-0.00000043,-0.00000110,-0.00
 000018,-0.00000008,-0.00000117,-0.00000055,-0.00000397,-0.00000153,-0.
 00000126,0.00000441,-0.00000587,-0.00000048,0.00000050,0.,0.00000030,-
 0.00000086,0.00000051,0.00000157,-0.00000020,-0.00000192,0.00000037,-0
 .00000058,0.00000067,-0.00000106,-0.00000021,0.00000021,0.00000002,0.0
 0000022,-0.00000029,-0.00000041,0.,0.00000065,0.00000061,-0.00000026,-
 0.00000061,0.00000061,-0.00000052,0.00000054,0.00000105,0.,0.00000087,
 0.00000005,0.00000033,0.00000111,0.00000019,-0.00000022,0.00000107,0.0
 0000073,-0.00000054,0.00000034,0.00000097,0.00000009,0.00000086,0.0000
 0094,0.,0.00000086,0.00000132,0.00000085,-0.00000147,0.00000081,0.0000
 0052,-0.00000082,0.00000039,0.00000044,-0.00000021,-0.00000064,0.00000
 056,0.00000024,0.00000077,0.00000066,0.00000102,-0.00000001,-0.0000000
 9,0.00000016,-0.00000047,0.00000042,0.00000018,-0.00000046,0.00000209,
 0.00000354,-0.00000367,-0.00000193,0.00000458,-0.00000119\\\@
 Job cpu time:  0 days 16 hours 33 minutes 20.3 seconds.
 File lengths (MBytes):  RWF=  71587 Int=      0 D2E=      0 Chk=     26 Scr=      1
 Normal termination of Gaussian 09 at Wed Feb 26 14:07:45 2014.
