Title Card Required                                                     
SP        UM062X                                                      def2TZVP            
Number of atoms                            I                1
Info1-9                                    I   N=           9
          15          10           0           0           0         110
           1          18        -502
Charge                                     I                0
Multiplicity                               I                3
Number of electrons                        I                6
Number of alpha electrons                  I                4
Number of beta electrons                   I                2
Number of basis functions                  I               31
Number of independent functions            I               31
Number of point charges in /Mol/           I                0
Number of translation vectors              I                0
Atomic numbers                             I   N=           1
           6
Nuclear charges                            R   N=           1
  6.00000000E+00
Current cartesian coordinates              R   N=           3
  0.00000000E+00  0.00000000E+00  0.00000000E+00
Force Field                                I                0
Int Atom Types                             I   N=           1
           0
MM charges                                 R   N=           1
  0.00000000E+00
Integer atomic weights                     I   N=           1
          12
Real atomic weights                        R   N=           1
  1.20000000E+01
Atom fragment info                         I   N=           1
           0
Atom residue num                           I   N=           1
           0
Nuclear spins                              I   N=           1
           0
Nuclear ZEff                               R   N=           1
 -3.60000000E+00
Nuclear ZNuc                               R   N=           1
  6.00000000E+00
Nuclear QMom                               R   N=           1
  0.00000000E+00
Nuclear GFac                               R   N=           1
  0.00000000E+00
MicOpt                                     I   N=           1
          -1
Number of contracted shells                I               11
Number of primitive shells                 I               20
Pure/Cartesian d shells                    I                0
Pure/Cartesian f shells                    I                0
Highest angular momentum                   I                3
Largest degree of contraction              I                6
Shell types                                I   N=          11
           0           0           0           0           0           1
           1           1          -2          -2          -3
Number of primitives per shell             I   N=          11
           6           2           1           1           1           4
           1           1           1           1           1
Shell to atom map                          I   N=          11
           1           1           1           1           1           1
           1           1           1           1           1
Primitive exponents                        R   N=          20
  1.35753497E+04  2.03523337E+03  4.63225624E+02  1.31200196E+02  4.28530159E+01
  1.55841858E+01  6.20671385E+00  2.57648965E+00  5.76963394E-01  2.29728314E-01
  9.51644400E-02  3.46972322E+01  7.95826228E+00  2.37808269E+00  8.14332082E-01
  2.88875473E-01  1.00568237E-01  1.09700000E+00  3.18000000E-01  7.61000000E-01
Contraction coefficients                   R   N=          20
  6.06455036E-04  4.69790889E-03  2.43324776E-02  9.73999683E-02  3.01955843E-01
  6.62336091E-01  6.55953085E-01  3.75856333E-01  1.00000000E+00  1.00000000E+00
  1.00000000E+00  1.13272200E-02  7.61696592E-02  3.01922522E-01  7.27850273E-01
  1.00000000E+00  1.00000000E+00  1.00000000E+00  1.00000000E+00  1.00000000E+00
Coordinates of each shell                  R   N=          33
  0.00000000E+00  0.00000000E+00  0.00000000E+00  0.00000000E+00  0.00000000E+00
  0.00000000E+00  0.00000000E+00  0.00000000E+00  0.00000000E+00  0.00000000E+00
  0.00000000E+00  0.00000000E+00  0.00000000E+00  0.00000000E+00  0.00000000E+00
  0.00000000E+00  0.00000000E+00  0.00000000E+00  0.00000000E+00  0.00000000E+00
  0.00000000E+00  0.00000000E+00  0.00000000E+00  0.00000000E+00  0.00000000E+00
  0.00000000E+00  0.00000000E+00  0.00000000E+00  0.00000000E+00  0.00000000E+00
  0.00000000E+00  0.00000000E+00  0.00000000E+00
Constraint Structure                       R   N=           3
  0.00000000E+00  0.00000000E+00  0.00000000E+00
Num ILSW                                   I              100
ILSW                                       I   N=         100
           1           0           0           0           2           0
           0           0           0           0        4336          -1
           0           0           0           0           0           0
           0           0           1           0           0           0
           1           0           0           0           0           0
           0           0      100000           0          -1           0
           0           0           0           0           0           0
           0           0           0           1           0           0
           0           0           1           0           0           0
           0           0           4          41           0           0
           0           0          55           0           0           0
           0           0           0           0           0           0
           0           0           0           0           0           0
           0           0           0           0           0           0
           0           0           0           0           0           0
           0           0           0           0           0           0
           0           0           0           0
Num RLSW                                   I               41
RLSW                                       R   N=          41
  1.00000000E+00  1.00000000E+00  1.00000000E+00  1.00000000E+00  5.40000000E-01
  0.00000000E+00  0.00000000E+00  1.00000000E+00  0.00000000E+00  0.00000000E+00
  0.00000000E+00  0.00000000E+00  1.00000000E+00  0.00000000E+00  0.00000000E+00
  0.00000000E+00  0.00000000E+00  1.00000000E+00  0.00000000E+00  0.00000000E+00
  0.00000000E+00  0.00000000E+00  1.00000000E+00  0.00000000E+00  0.00000000E+00
  0.00000000E+00  0.00000000E+00  1.00000000E+00  0.00000000E+00  0.00000000E+00
  0.00000000E+00  0.00000000E+00  1.00000000E+00  0.00000000E+00  0.00000000E+00
  0.00000000E+00  0.00000000E+00  0.00000000E+00  1.00000000E+00  1.00000000E+00
  0.00000000E+00
ECP-MxAtEC                                 I           250000
ECP-MaxLECP                                I               10
ECP-MaxAtL                                 I          2250000
ECP-MxTECP                                 I         11250000
ECP-LenNCZ                                 I                0
ECP-KFirst                                 I   N=          10
           0           0           0           0           0           0
           0           0           0           0
ECP-KLast                                  I   N=          10
           0           0           0           0           0           0
           0           0           0           0
ECP-LMax                                   I   N=           1
           0
ECP-LPSkip                                 I   N=           1
           1
ECP-RNFroz                                 R   N=           1
  0.00000000E+00
ECP-NLP                                    I                0
ECP-CLP1                                   R      0.000000000000000E+00
ECP-CLP2                                   R      0.000000000000000E+00
ECP-ZLP                                    R      0.000000000000000E+00
MxBond                                     I                1
NBond                                      I   N=           1
           0
IBond                                      I   N=           1
           0
RBond                                      R   N=           1
  0.00000000E+00
Virial Ratio                               R      2.003290132082209E+00
SCF Energy                                 R     -3.784251089835312E+01
Total Energy                               R     -3.784251089835312E+01
S**2                                       R      2.003566118845702E+00
S**2 after annihilation                    R      2.000000000899680E+00
RMS Density                                R      8.674081735473745E-09
External E-field                           R   N=          35
  0.00000000E+00  0.00000000E+00  0.00000000E+00  0.00000000E+00  0.00000000E+00
  0.00000000E+00  0.00000000E+00  0.00000000E+00  0.00000000E+00  0.00000000E+00
  0.00000000E+00  0.00000000E+00  0.00000000E+00  0.00000000E+00  0.00000000E+00
  0.00000000E+00  0.00000000E+00  0.00000000E+00  0.00000000E+00  0.00000000E+00
  0.00000000E+00  0.00000000E+00  0.00000000E+00  0.00000000E+00  0.00000000E+00
  0.00000000E+00  0.00000000E+00  0.00000000E+00  0.00000000E+00  0.00000000E+00
  0.00000000E+00  0.00000000E+00  0.00000000E+00  0.00000000E+00  0.00000000E+00
IOpCl                                      I                1
IROHF                                      I                0
Alpha Orbital Energies                     R   N=          31
 -1.06614989E+01 -6.68787371E-01 -3.23962764E-01 -3.23962764E-01 -9.72545375E-02
  1.97446784E-01  2.82751039E-01  2.82751039E-01  2.86450731E-01  7.04680192E-01
  7.04681679E-01  7.05362179E-01  7.05362179E-01  7.12108842E-01  1.24001108E+00
  1.41047974E+00  1.41047974E+00  1.42108610E+00  2.64308657E+00  2.64308657E+00
  2.65277116E+00  2.65292276E+00  2.65603775E+00  2.65837019E+00  2.65837019E+00
  2.89329478E+00  2.89342963E+00  2.89876532E+00  2.90847835E+00  2.90847835E+00
  2.12967337E+01
Beta Orbital Energies                      R   N=          31
 -1.06417708E+01 -5.39334738E-01 -6.79371884E-02 -4.11402778E-02 -4.11402778E-02
  1.41039974E-01  2.57835132E-01  2.57835132E-01  2.62012192E-01  7.04581881E-01
  7.10893836E-01  7.10893836E-01  7.22005935E-01  7.22006046E-01  1.25450193E+00
  1.40905782E+00  1.46326483E+00  1.46326483E+00  2.61804800E+00  2.62201842E+00
  2.62201842E+00  2.62887790E+00  2.62888126E+00  2.64586417E+00  2.64586417E+00
  2.94224790E+00  2.95529374E+00  2.95529374E+00  3.00051627E+00  3.00051813E+00
  2.13041104E+01
Alpha MO coefficients                      R   N=         961
  4.67061060E-01  6.11090056E-01  2.70347784E-02 -1.48059705E-02  5.25302856E-03
  0.00000000E+00  0.00000000E+00  0.00000000E+00  0.00000000E+00  0.00000000E+00
  0.00000000E+00  0.00000000E+00  0.00000000E+00  0.00000000E+00 -1.19151404E-04
  0.00000000E+00  0.00000000E+00  2.06376286E-04  0.00000000E+00  1.67637751E-04
  0.00000000E+00  0.00000000E+00 -2.90357102E-04  0.00000000E+00  0.00000000E+00
  0.00000000E+00  0.00000000E+00  0.00000000E+00  0.00000000E+00  0.00000000E+00
  0.00000000E+00 -1.13463595E-01 -2.51250934E-01  4.44268652E-01  5.14963103E-01
  1.71919999E-01  0.00000000E+00  0.00000000E+00  0.00000000E+00  0.00000000E+00
  0.00000000E+00  0.00000000E+00  0.00000000E+00  0.00000000E+00  0.00000000E+00
 -1.46794683E-04  0.00000000E+00  0.00000000E+00  2.54255849E-04  0.00000000E+00
  3.77016786E-03  0.00000000E+00  0.00000000E+00 -6.53012228E-03  0.00000000E+00
  0.00000000E+00  0.00000000E+00  0.00000000E+00  0.00000000E+00  0.00000000E+00
  0.00000000E+00  0.00000000E+00  0.00000000E+00  0.00000000E+00  0.00000000E+00
  0.00000000E+00  0.00000000E+00  0.00000000E+00  4.87527714E-01  0.00000000E+00
  0.00000000E+00  4.36709030E-01  0.00000000E+00  0.00000000E+00  2.66810432E-01
  0.00000000E+00  0.00000000E+00  0.00000000E+00  0.00000000E+00  0.00000000E+00
  0.00000000E+00  0.00000000E+00  0.00000000E+00  0.00000000E+00  0.00000000E+00
  0.00000000E+00  0.00000000E+00  0.00000000E+00 -1.09838528E-03  0.00000000E+00
  0.00000000E+00  0.00000000E+00  4.23078706E-03  0.00000000E+00  0.00000000E+00
  0.00000000E+00  0.00000000E+00  0.00000000E+00  0.00000000E+00  0.00000000E+00
  4.87527714E-01  0.00000000E+00  0.00000000E+00  4.36709030E-01  0.00000000E+00
  0.00000000E+00  2.66810432E-01  0.00000000E+00  0.00000000E+00  0.00000000E+00
  0.00000000E+00  0.00000000E+00  0.00000000E+00  0.00000000E+00  0.00000000E+00
  0.00000000E+00  0.00000000E+00 -2.67210998E-03  0.00000000E+00  0.00000000E+00
  3.45916719E-03  0.00000000E+00  0.00000000E+00  0.00000000E+00  0.00000000E+00
  0.00000000E+00  0.00000000E+00  0.00000000E+00  0.00000000E+00  4.32130818E-01
  0.00000000E+00  0.00000000E+00  3.97345827E-01  0.00000000E+00  0.00000000E+00
  3.76916431E-01  0.00000000E+00  0.00000000E+00  0.00000000E+00  0.00000000E+00
  0.00000000E+00  0.00000000E+00  0.00000000E+00  0.00000000E+00  0.00000000E+00
  0.00000000E+00  0.00000000E+00  0.00000000E+00  0.00000000E+00 -1.18584737E-03
  0.00000000E+00  0.00000000E+00  0.00000000E+00  1.53092238E-03  0.00000000E+00
  5.67726372E-02  1.15117976E-01  4.86857458E-03 -1.78089885E+00  2.04729661E+00
  0.00000000E+00  0.00000000E+00  0.00000000E+00  0.00000000E+00  0.00000000E+00
  0.00000000E+00  0.00000000E+00  0.00000000E+00  0.00000000E+00  4.67972225E-04
  0.00000000E+00  0.00000000E+00 -8.10551670E-04  0.00000000E+00  6.96992344E-03
  0.00000000E+00  0.00000000E+00 -1.20722615E-02  0.00000000E+00  0.00000000E+00
  0.00000000E+00  0.00000000E+00  0.00000000E+00  0.00000000E+00  0.00000000E+00
  0.00000000E+00  0.00000000E+00  0.00000000E+00  0.00000000E+00  0.00000000E+00
  0.00000000E+00  0.00000000E+00  0.00000000E+00 -2.99614280E-01  0.00000000E+00
  0.00000000E+00 -7.01083550E-01  0.00000000E+00  0.00000000E+00  1.28052255E+00
  0.00000000E+00  0.00000000E+00  0.00000000E+00  0.00000000E+00  0.00000000E+00
  0.00000000E+00  0.00000000E+00  0.00000000E+00  0.00000000E+00  0.00000000E+00
  1.73251884E-03  0.00000000E+00  0.00000000E+00 -2.24390419E-03  0.00000000E+00
  0.00000000E+00  0.00000000E+00  0.00000000E+00  0.00000000E+00  0.00000000E+00
  0.00000000E+00  0.00000000E+00  0.00000000E+00 -2.99614280E-01  0.00000000E+00
  0.00000000E+00 -7.01083550E-01  0.00000000E+00  0.00000000E+00  1.28052255E+00
  0.00000000E+00  0.00000000E+00  0.00000000E+00  0.00000000E+00  0.00000000E+00
  0.00000000E+00  0.00000000E+00  0.00000000E+00  0.00000000E+00  0.00000000E+00
  0.00000000E+00  0.00000000E+00  0.00000000E+00  7.13015245E-04  0.00000000E+00
  0.00000000E+00  0.00000000E+00 -2.74378148E-03  0.00000000E+00  0.00000000E+00
  0.00000000E+00  0.00000000E+00  0.00000000E+00 -3.13443435E-01  0.00000000E+00
  0.00000000E+00 -7.85032892E-01  0.00000000E+00  0.00000000E+00  1.26855499E+00
  0.00000000E+00  0.00000000E+00  0.00000000E+00  0.00000000E+00  0.00000000E+00
  0.00000000E+00  0.00000000E+00  0.00000000E+00  0.00000000E+00  0.00000000E+00
  0.00000000E+00  0.00000000E+00  0.00000000E+00  1.72901742E-03  0.00000000E+00
  0.00000000E+00  0.00000000E+00 -2.23215189E-03  0.00000000E+00  4.84571876E-17
  1.93629418E-16 -1.34167740E-15  1.84506650E-15 -7.09124001E-16  0.00000000E+00
  0.00000000E+00  0.00000000E+00  0.00000000E+00  0.00000000E+00  0.00000000E+00
  0.00000000E+00  0.00000000E+00  0.00000000E+00 -1.25782789E-02  0.00000000E+00
  0.00000000E+00 -7.26207269E-03  0.00000000E+00  8.72646197E-01  0.00000000E+00
  0.00000000E+00  5.03822517E-01  0.00000000E+00  0.00000000E+00  0.00000000E+00
  0.00000000E+00  0.00000000E+00  0.00000000E+00  0.00000000E+00  0.00000000E+00
  0.00000000E+00  0.00000000E+00  0.00000000E+00  0.00000000E+00  0.00000000E+00
  0.00000000E+00  0.00000000E+00  0.00000000E+00  0.00000000E+00  0.00000000E+00
  0.00000000E+00  0.00000000E+00  0.00000000E+00  0.00000000E+00  0.00000000E+00
  0.00000000E+00 -1.45349655E-02  0.00000000E+00  0.00000000E+00  0.00000000E+00
  0.00000000E+00  1.00765067E+00  0.00000000E+00  0.00000000E+00  0.00000000E+00
  0.00000000E+00  0.00000000E+00  0.00000000E+00  0.00000000E+00  0.00000000E+00
  0.00000000E+00  0.00000000E+00  0.00000000E+00  0.00000000E+00  0.00000000E+00
  0.00000000E+00  0.00000000E+00  0.00000000E+00  0.00000000E+00  0.00000000E+00
  0.00000000E+00  0.00000000E+00  0.00000000E+00  0.00000000E+00  0.00000000E+00
  0.00000000E+00  0.00000000E+00  0.00000000E+00  0.00000000E+00 -1.32431688E-02
  0.00000000E+00  0.00000000E+00  0.00000000E+00  0.00000000E+00  1.00697686E+00
  0.00000000E+00  0.00000000E+00  0.00000000E+00  0.00000000E+00  0.00000000E+00
  0.00000000E+00  0.00000000E+00  0.00000000E+00  0.00000000E+00  0.00000000E+00
  0.00000000E+00  0.00000000E+00  0.00000000E+00  0.00000000E+00  0.00000000E+00
  0.00000000E+00  0.00000000E+00  0.00000000E+00  0.00000000E+00  0.00000000E+00
  0.00000000E+00  0.00000000E+00 -1.32431688E-02  0.00000000E+00  0.00000000E+00
  0.00000000E+00  0.00000000E+00  1.00697686E+00  0.00000000E+00  0.00000000E+00
  0.00000000E+00  0.00000000E+00  0.00000000E+00  0.00000000E+00  0.00000000E+00
  0.00000000E+00  0.00000000E+00  0.00000000E+00  2.28052684E-04  2.86796865E-05
  2.04143727E-03 -2.00363251E-02  3.00007342E-02  0.00000000E+00  0.00000000E+00
  0.00000000E+00  0.00000000E+00  0.00000000E+00  0.00000000E+00  0.00000000E+00
  0.00000000E+00  0.00000000E+00  8.59860396E-03  0.00000000E+00  0.00000000E+00
 -1.48932189E-02  0.00000000E+00 -5.04452037E-01  0.00000000E+00  0.00000000E+00
  8.73736558E-01  0.00000000E+00  0.00000000E+00  0.00000000E+00  0.00000000E+00
  0.00000000E+00  0.00000000E+00  0.00000000E+00  0.00000000E+00  1.27827081E-01
  4.08448870E-01 -2.87029522E+00  3.95024273E+00 -1.70613882E+00  0.00000000E+00
  0.00000000E+00  0.00000000E+00  0.00000000E+00  0.00000000E+00  0.00000000E+00
  0.00000000E+00  0.00000000E+00  0.00000000E+00 -5.93720907E-04  0.00000000E+00
  0.00000000E+00  1.02835478E-03  0.00000000E+00  5.51844853E-04  0.00000000E+00
  0.00000000E+00 -9.55823324E-04  0.00000000E+00  0.00000000E+00  0.00000000E+00
  0.00000000E+00  0.00000000E+00  0.00000000E+00  0.00000000E+00  0.00000000E+00
  0.00000000E+00  0.00000000E+00  0.00000000E+00  0.00000000E+00  0.00000000E+00
  0.00000000E+00 -1.24568564E+00  0.00000000E+00  0.00000000E+00  1.71134942E+00
  0.00000000E+00  0.00000000E+00 -7.99788562E-01  0.00000000E+00  0.00000000E+00
  0.00000000E+00  0.00000000E+00  0.00000000E+00  0.00000000E+00  0.00000000E+00
  0.00000000E+00  0.00000000E+00  0.00000000E+00  0.00000000E+00  0.00000000E+00
  0.00000000E+00 -5.19529195E-04  0.00000000E+00  0.00000000E+00  0.00000000E+00
  2.10425216E-03  0.00000000E+00  0.00000000E+00  0.00000000E+00  0.00000000E+00
  0.00000000E+00  0.00000000E+00  0.00000000E+00 -1.24568564E+00  0.00000000E+00
  0.00000000E+00  1.71134942E+00  0.00000000E+00  0.00000000E+00 -7.99788562E-01
  0.00000000E+00  0.00000000E+00  0.00000000E+00  0.00000000E+00  0.00000000E+00
  0.00000000E+00  0.00000000E+00  0.00000000E+00  0.00000000E+00  0.00000000E+00
 -1.34541204E-03  0.00000000E+00  0.00000000E+00  1.69930991E-03  0.00000000E+00
  0.00000000E+00  0.00000000E+00  0.00000000E+00  0.00000000E+00  0.00000000E+00
  0.00000000E+00  0.00000000E+00 -1.26261421E+00  0.00000000E+00  0.00000000E+00
  1.68429319E+00  0.00000000E+00  0.00000000E+00 -7.74145864E-01  0.00000000E+00
  0.00000000E+00  0.00000000E+00  0.00000000E+00  0.00000000E+00  0.00000000E+00
  0.00000000E+00  0.00000000E+00  0.00000000E+00  0.00000000E+00  0.00000000E+00
  0.00000000E+00  0.00000000E+00  3.84356491E-04  0.00000000E+00  0.00000000E+00
  0.00000000E+00 -4.96202097E-04  0.00000000E+00  0.00000000E+00  0.00000000E+00
  0.00000000E+00  0.00000000E+00  0.00000000E+00  0.00000000E+00  0.00000000E+00
 -2.80498080E-04  0.00000000E+00  0.00000000E+00 -7.60560036E-03  0.00000000E+00
  0.00000000E+00  4.19741080E-03  0.00000000E+00  0.00000000E+00  0.00000000E+00
  0.00000000E+00  0.00000000E+00  0.00000000E+00  0.00000000E+00  0.00000000E+00
  0.00000000E+00  0.00000000E+00 -6.14591029E-01  0.00000000E+00  0.00000000E+00
  7.88825727E-01  0.00000000E+00  0.00000000E+00  0.00000000E+00  0.00000000E+00
  0.00000000E+00  0.00000000E+00  0.00000000E+00  0.00000000E+00  0.00000000E+00
 -2.80498080E-04  0.00000000E+00  0.00000000E+00 -7.60560036E-03  0.00000000E+00
  0.00000000E+00  4.19741080E-03  0.00000000E+00  0.00000000E+00  0.00000000E+00
  0.00000000E+00  0.00000000E+00  0.00000000E+00  0.00000000E+00  0.00000000E+00
  0.00000000E+00  0.00000000E+00  0.00000000E+00  0.00000000E+00  0.00000000E+00
 -2.47262889E-01  0.00000000E+00  0.00000000E+00  0.00000000E+00  9.68932002E-01
  0.00000000E+00  0.00000000E+00  0.00000000E+00  0.00000000E+00  0.00000000E+00
  0.00000000E+00  0.00000000E+00  0.00000000E+00  0.00000000E+00  0.00000000E+00
  0.00000000E+00  0.00000000E+00  0.00000000E+00  0.00000000E+00  0.00000000E+00
  0.00000000E+00  0.00000000E+00  0.00000000E+00  0.00000000E+00  0.00000000E+00
  0.00000000E+00  0.00000000E+00  0.00000000E+00  0.00000000E+00  0.00000000E+00
  0.00000000E+00  0.00000000E+00  0.00000000E+00  1.00000000E+00  0.00000000E+00
  0.00000000E+00  0.00000000E+00  0.00000000E+00  0.00000000E+00  0.00000000E+00
  0.00000000E+00 -1.22429799E-15  0.00000000E+00  0.00000000E+00  3.09932799E-15
  0.00000000E+00  0.00000000E+00 -1.30837234E-15  0.00000000E+00  0.00000000E+00
  0.00000000E+00  0.00000000E+00  0.00000000E+00  0.00000000E+00  0.00000000E+00
  0.00000000E+00  0.00000000E+00  0.00000000E+00  0.00000000E+00  0.00000000E+00
  0.00000000E+00  7.90569415E-01  0.00000000E+00  0.00000000E+00  0.00000000E+00
  6.12372436E-01  0.00000000E+00  0.00000000E+00  0.00000000E+00  0.00000000E+00
  0.00000000E+00  0.00000000E+00 -2.51430920E-03  0.00000000E+00  0.00000000E+00
 -1.92883467E-03  0.00000000E+00  0.00000000E+00  2.36596067E-03  0.00000000E+00
  0.00000000E+00  0.00000000E+00  0.00000000E+00  0.00000000E+00  0.00000000E+00
  0.00000000E+00  0.00000000E+00  0.00000000E+00  0.00000000E+00  0.00000000E+00
  0.00000000E+00  0.00000000E+00 -6.12368726E-01  0.00000000E+00  0.00000000E+00
  0.00000000E+00  7.90564626E-01  0.00000000E+00  0.00000000E+00  0.00000000E+00
  0.00000000E+00  0.00000000E+00  0.00000000E+00  0.00000000E+00  3.36406196E-05
  0.00000000E+00  0.00000000E+00 -1.23109851E-05  0.00000000E+00  0.00000000E+00
  2.45520459E-06  0.00000000E+00  0.00000000E+00  0.00000000E+00  0.00000000E+00
  0.00000000E+00  0.00000000E+00  0.00000000E+00  0.00000000E+00  0.00000000E+00
  0.00000000E+00  0.00000000E+00  0.00000000E+00  0.00000000E+00  9.68947408E-01
  0.00000000E+00  0.00000000E+00  0.00000000E+00  2.47266900E-01  0.00000000E+00
  0.00000000E+00  0.00000000E+00  0.00000000E+00  0.00000000E+00  0.00000000E+00
  0.00000000E+00 -3.36406196E-05  0.00000000E+00  0.00000000E+00  1.23109851E-05
  0.00000000E+00  0.00000000E+00 -2.45520459E-06  0.00000000E+00  0.00000000E+00
  0.00000000E+00  0.00000000E+00  0.00000000E+00  0.00000000E+00  0.00000000E+00
  0.00000000E+00  0.00000000E+00  0.00000000E+00  7.88838333E-01  0.00000000E+00
  0.00000000E+00  6.14600751E-01  0.00000000E+00  0.00000000E+00  0.00000000E+00
 -3.13210655E-16 -4.88545525E-16  2.46795782E-15 -3.14268061E-15  1.30866992E-15
  0.00000000E+00  0.00000000E+00  0.00000000E+00  0.00000000E+00  0.00000000E+00
  0.00000000E+00  0.00000000E+00  0.00000000E+00  0.00000000E+00  1.02237299E+00
  0.00000000E+00  0.00000000E+00  5.90267323E-01  0.00000000E+00 -5.32816447E-01
  0.00000000E+00  0.00000000E+00 -3.07621719E-01  0.00000000E+00  0.00000000E+00
  0.00000000E+00  0.00000000E+00  0.00000000E+00  0.00000000E+00  0.00000000E+00
  0.00000000E+00  0.00000000E+00  0.00000000E+00  0.00000000E+00  0.00000000E+00
  0.00000000E+00  0.00000000E+00  0.00000000E+00  0.00000000E+00  0.00000000E+00
  0.00000000E+00  0.00000000E+00  0.00000000E+00  0.00000000E+00  0.00000000E+00
  0.00000000E+00  0.00000000E+00  1.18053451E+00  0.00000000E+00  0.00000000E+00
  0.00000000E+00  0.00000000E+00 -6.15234203E-01  0.00000000E+00  0.00000000E+00
  0.00000000E+00  0.00000000E+00  0.00000000E+00  0.00000000E+00  0.00000000E+00
  0.00000000E+00  0.00000000E+00 -5.88377265E-04  1.53090270E-04  2.38767449E-03
 -5.44136619E-03  3.60006084E-03  0.00000000E+00  0.00000000E+00  0.00000000E+00
  0.00000000E+00  0.00000000E+00  0.00000000E+00  0.00000000E+00  0.00000000E+00
  0.00000000E+00 -5.90248822E-01  0.00000000E+00  0.00000000E+00  1.02234095E+00
  0.00000000E+00  3.06485317E-01  0.00000000E+00  0.00000000E+00 -5.30848141E-01
  0.00000000E+00  0.00000000E+00  0.00000000E+00  0.00000000E+00  0.00000000E+00
  0.00000000E+00  0.00000000E+00  0.00000000E+00  0.00000000E+00  0.00000000E+00
  0.00000000E+00  0.00000000E+00  0.00000000E+00  0.00000000E+00  0.00000000E+00
  0.00000000E+00  0.00000000E+00  0.00000000E+00  0.00000000E+00  0.00000000E+00
  0.00000000E+00  0.00000000E+00  0.00000000E+00  0.00000000E+00  0.00000000E+00
  0.00000000E+00  1.18054971E+00  0.00000000E+00  0.00000000E+00  0.00000000E+00
  0.00000000E+00 -6.16336446E-01  0.00000000E+00  0.00000000E+00  0.00000000E+00
  0.00000000E+00  0.00000000E+00  0.00000000E+00  0.00000000E+00  0.00000000E+00
  0.00000000E+00  0.00000000E+00  0.00000000E+00  0.00000000E+00  0.00000000E+00
  0.00000000E+00  0.00000000E+00  0.00000000E+00  0.00000000E+00  0.00000000E+00
  0.00000000E+00  0.00000000E+00  0.00000000E+00  0.00000000E+00  1.18054971E+00
  0.00000000E+00  0.00000000E+00  0.00000000E+00  0.00000000E+00 -6.16336446E-01
  0.00000000E+00  0.00000000E+00  0.00000000E+00  0.00000000E+00  0.00000000E+00
  0.00000000E+00  0.00000000E+00  0.00000000E+00  0.00000000E+00  0.00000000E+00
 -1.37670567E+00  1.66028955E+00 -1.29913227E+00  1.12438797E+00 -4.12691931E-01
  0.00000000E+00  0.00000000E+00  0.00000000E+00  0.00000000E+00  0.00000000E+00
  0.00000000E+00  0.00000000E+00  0.00000000E+00  0.00000000E+00  1.89531580E-04
  0.00000000E+00  0.00000000E+00 -3.28278325E-04  0.00000000E+00 -1.29736311E-04
  0.00000000E+00  0.00000000E+00  2.24709883E-04  0.00000000E+00  0.00000000E+00
  0.00000000E+00  0.00000000E+00  0.00000000E+00  0.00000000E+00  0.00000000E+00
  0.00000000E+00
Beta MO coefficients                       R   N=         961
  4.67497857E-01  6.11306043E-01  2.61345898E-02 -1.57420946E-02  5.39417586E-03
  0.00000000E+00  0.00000000E+00  0.00000000E+00  0.00000000E+00  0.00000000E+00
  0.00000000E+00  0.00000000E+00  0.00000000E+00  0.00000000E+00 -3.60647771E-04
  0.00000000E+00  0.00000000E+00  6.24660263E-04  0.00000000E+00  1.73434099E-04
  0.00000000E+00  0.00000000E+00 -3.00396672E-04  0.00000000E+00  0.00000000E+00
  0.00000000E+00  0.00000000E+00  0.00000000E+00  0.00000000E+00  0.00000000E+00
  0.00000000E+00 -1.09098435E-01 -2.35872853E-01  3.97606412E-01  4.85812185E-01
  2.49448278E-01  0.00000000E+00  0.00000000E+00  0.00000000E+00  0.00000000E+00
  0.00000000E+00  0.00000000E+00  0.00000000E+00  0.00000000E+00  0.00000000E+00
 -4.27522927E-03  0.00000000E+00  0.00000000E+00  7.40491431E-03  0.00000000E+00
 -6.75165421E-03  0.00000000E+00  0.00000000E+00  1.16942081E-02  0.00000000E+00
  0.00000000E+00  0.00000000E+00  0.00000000E+00  0.00000000E+00  0.00000000E+00
  0.00000000E+00  0.00000000E+00  0.00000000E+00  0.00000000E+00  0.00000000E+00
  0.00000000E+00  0.00000000E+00  3.77386465E-01  0.00000000E+00  0.00000000E+00
  2.97615601E-01  0.00000000E+00  0.00000000E+00  5.40999110E-01  0.00000000E+00
  0.00000000E+00  0.00000000E+00  0.00000000E+00  0.00000000E+00  0.00000000E+00
  0.00000000E+00  0.00000000E+00  0.00000000E+00  0.00000000E+00  0.00000000E+00
  0.00000000E+00  0.00000000E+00 -4.80793315E-03  0.00000000E+00  0.00000000E+00
  0.00000000E+00  6.20701501E-03  0.00000000E+00  0.00000000E+00  0.00000000E+00
  0.00000000E+00  0.00000000E+00  0.00000000E+00  0.00000000E+00  0.00000000E+00
  3.46450141E-01  0.00000000E+00  0.00000000E+00  2.25795964E-01  0.00000000E+00
  0.00000000E+00  6.40232740E-01  0.00000000E+00  0.00000000E+00  0.00000000E+00
  0.00000000E+00  0.00000000E+00  0.00000000E+00  0.00000000E+00  0.00000000E+00
  0.00000000E+00  0.00000000E+00 -3.62120056E-03  0.00000000E+00  0.00000000E+00
  4.67514252E-03  0.00000000E+00  0.00000000E+00  0.00000000E+00  0.00000000E+00
  0.00000000E+00  0.00000000E+00  0.00000000E+00  0.00000000E+00  0.00000000E+00
  3.46450141E-01  0.00000000E+00  0.00000000E+00  2.25795964E-01  0.00000000E+00
  0.00000000E+00  6.40232740E-01  0.00000000E+00  0.00000000E+00  0.00000000E+00
  0.00000000E+00  0.00000000E+00  0.00000000E+00  0.00000000E+00  0.00000000E+00
  0.00000000E+00  0.00000000E+00  0.00000000E+00  0.00000000E+00  0.00000000E+00
 -1.47850127E-03  0.00000000E+00  0.00000000E+00  0.00000000E+00  5.72573882E-03
  5.61082246E-02  1.03454263E-01  1.41670808E-01 -2.02033006E+00  2.12745743E+00
  0.00000000E+00  0.00000000E+00  0.00000000E+00  0.00000000E+00  0.00000000E+00
  0.00000000E+00  0.00000000E+00  0.00000000E+00  0.00000000E+00  1.91814422E-03
  0.00000000E+00  0.00000000E+00 -3.32232325E-03  0.00000000E+00  1.55544209E-03
  0.00000000E+00  0.00000000E+00 -2.69410473E-03  0.00000000E+00  0.00000000E+00
  0.00000000E+00  0.00000000E+00  0.00000000E+00  0.00000000E+00  0.00000000E+00
  0.00000000E+00  0.00000000E+00  0.00000000E+00  0.00000000E+00  0.00000000E+00
  0.00000000E+00  0.00000000E+00  0.00000000E+00 -3.36193691E-01  0.00000000E+00
  0.00000000E+00 -9.36146109E-01  0.00000000E+00  0.00000000E+00  1.19338954E+00
  0.00000000E+00  0.00000000E+00  0.00000000E+00  0.00000000E+00  0.00000000E+00
  0.00000000E+00  0.00000000E+00  0.00000000E+00  0.00000000E+00  0.00000000E+00
  1.97888729E-03  0.00000000E+00  0.00000000E+00 -2.55501747E-03  0.00000000E+00
  0.00000000E+00  0.00000000E+00  0.00000000E+00  0.00000000E+00  0.00000000E+00
  0.00000000E+00  0.00000000E+00  0.00000000E+00 -3.36193691E-01  0.00000000E+00
  0.00000000E+00 -9.36146109E-01  0.00000000E+00  0.00000000E+00  1.19338954E+00