 Entering Gaussian System, Link 0=/home/hetanjin/apps/g09D01/g09/g09
 Input=C4H9OH_2_3_opt_M06.gjf
 Output=C4H9OH_2_3_opt_M06.log
 Initial command:
 /home/hetanjin/apps/g09D01/g09/l1.exe "/state/partition1/Gau-22487.inp" -scrdir="/state/partition1/"
 Entering Link 1 = /home/hetanjin/apps/g09D01/g09/l1.exe PID=     22488.
  
 Copyright (c) 1988,1990,1992,1993,1995,1998,2003,2009,2013,
            Gaussian, Inc.  All Rights Reserved.
  
 This is part of the Gaussian(R) 09 program.  It is based on
 the Gaussian(R) 03 system (copyright 2003, Gaussian, Inc.),
 the Gaussian(R) 98 system (copyright 1998, Gaussian, Inc.),
 the Gaussian(R) 94 system (copyright 1995, Gaussian, Inc.),
 the Gaussian 92(TM) system (copyright 1992, Gaussian, Inc.),
 the Gaussian 90(TM) system (copyright 1990, Gaussian, Inc.),
 the Gaussian 88(TM) system (copyright 1988, Gaussian, Inc.),
 the Gaussian 86(TM) system (copyright 1986, Carnegie Mellon
 University), and the Gaussian 82(TM) system (copyright 1983,
 Carnegie Mellon University). Gaussian is a federally registered
 trademark of Gaussian, Inc.
  
 This software contains proprietary and confidential information,
 including trade secrets, belonging to Gaussian, Inc.
  
 This software is provided under written license and may be
 used, copied, transmitted, or stored only in accord with that
 written license.
  
 The following legend is applicable only to US Government
 contracts under FAR:
  
                    RESTRICTED RIGHTS LEGEND
  
 Use, reproduction and disclosure by the US Government is
 subject to restrictions as set forth in subparagraphs (a)
 and (c) of the Commercial Computer Software - Restricted
 Rights clause in FAR 52.227-19.
  
 Gaussian, Inc.
 340 Quinnipiac St., Bldg. 40, Wallingford CT 06492
  
  
 ---------------------------------------------------------------
 Warning -- This program may not be used in any manner that
 competes with the business of Gaussian, Inc. or will provide
 assistance to any competitor of Gaussian, Inc.  The licensee
 of this program is prohibited from giving any competitor of
 Gaussian, Inc. access to this program.  By using this program,
 the user acknowledges that Gaussian, Inc. is engaged in the
 business of creating and licensing software in the field of
 computational chemistry and represents and warrants to the
 licensee that it is not a competitor of Gaussian, Inc. and that
 it will not use this program in any manner prohibited above.
 ---------------------------------------------------------------
  

 Cite this work as:
 Gaussian 09, Revision D.01,
 M. J. Frisch, G. W. Trucks, H. B. Schlegel, G. E. Scuseria, 
 M. A. Robb, J. R. Cheeseman, G. Scalmani, V. Barone, B. Mennucci, 
 G. A. Petersson, H. Nakatsuji, M. Caricato, X. Li, H. P. Hratchian, 
 A. F. Izmaylov, J. Bloino, G. Zheng, J. L. Sonnenberg, M. Hada, 
 M. Ehara, K. Toyota, R. Fukuda, J. Hasegawa, M. Ishida, T. Nakajima, 
 Y. Honda, O. Kitao, H. Nakai, T. Vreven, J. A. Montgomery, Jr., 
 J. E. Peralta, F. Ogliaro, M. Bearpark, J. J. Heyd, E. Brothers, 
 K. N. Kudin, V. N. Staroverov, T. Keith, R. Kobayashi, J. Normand, 
 K. Raghavachari, A. Rendell, J. C. Burant, S. S. Iyengar, J. Tomasi, 
 M. Cossi, N. Rega, J. M. Millam, M. Klene, J. E. Knox, J. B. Cross, 
 V. Bakken, C. Adamo, J. Jaramillo, R. Gomperts, R. E. Stratmann, 
 O. Yazyev, A. J. Austin, R. Cammi, C. Pomelli, J. W. Ochterski, 
 R. L. Martin, K. Morokuma, V. G. Zakrzewski, G. A. Voth, 
 P. Salvador, J. J. Dannenberg, S. Dapprich, A. D. Daniels, 
 O. Farkas, J. B. Foresman, J. V. Ortiz, J. Cioslowski, 
 and D. J. Fox, Gaussian, Inc., Wallingford CT, 2013.
 
 ******************************************
 Gaussian 09:  ES64L-G09RevD.01 24-Apr-2013
                 6-Oct-2015 
 ******************************************
 %mem=28GB
 %nprocshared=12
 Will use up to   12 processors via shared memory.
 %chk=C4H9OH_2_3_opt_M06.chk
 -----------------
 #p M062X/def2TZVP
 -----------------
 1/38=1/1;
 2/12=2,17=6,18=5,40=1/2;
 3/5=44,7=101,11=2,16=1,25=1,30=1,74=-55/1,2,3;
 4//1;
 5/5=2,38=5/2;
 6/7=2,8=2,9=2,10=2,28=1/1;
 99/5=1,9=1/99;
 Leave Link    1 at Tue Oct  6 19:37:32 2015, MaxMem=  3758096384 cpu:         0.3
 (Enter /home/hetanjin/apps/g09D01/g09/l101.exe)
 -----------------------------
 using ub3lyp/6-31G(d) to scan
 -----------------------------
 Symbolic Z-matrix:
 Charge =  0 Multiplicity = 1
 C                    -1.80632  -0.66101  -0.00504 
 H                    -1.95825  -0.71676   1.08184 
 H                    -1.827    -1.68525  -0.39538 
 H                    -2.64451  -0.10605  -0.43806 
 C                    -0.48327   0.03384  -0.33288 
 H                    -0.36144   0.07225  -1.42314 
 C                     0.72868  -0.68993   0.27182 
 H                     0.71021  -1.74058  -0.04928 
 H                     0.61359  -0.7059    1.36755 
 C                     2.06739  -0.04841  -0.1023 
 H                     2.08368   1.00635   0.18831 
 H                     2.90397  -0.5573    0.38918 
 H                     2.23639  -0.0958   -1.18515 
 O                    -0.519     1.41128   0.0568 
 H                    -0.64342   1.43183   1.02016 
 
 NAtoms=     15 NQM=       15 NQMF=       0 NMMI=      0 NMMIF=      0
                NMic=       0 NMicF=      0.
                    Isotopes and Nuclear Properties:
 (Nuclear quadrupole moments (NQMom) in fm**2, nuclear magnetic moments (NMagM)
  in nuclear magnetons)

  Atom         1           2           3           4           5           6           7           8           9          10
 IAtWgt=          12           1           1           1          12           1          12           1           1          12
 AtmWgt=  12.0000000   1.0078250   1.0078250   1.0078250  12.0000000   1.0078250  12.0000000   1.0078250   1.0078250  12.0000000
 NucSpn=           0           1           1           1           0           1           0           1           1           0
 AtZEff=   0.0000000   0.0000000   0.0000000   0.0000000   0.0000000   0.0000000   0.0000000   0.0000000   0.0000000   0.0000000
 NQMom=    0.0000000   0.0000000   0.0000000   0.0000000   0.0000000   0.0000000   0.0000000   0.0000000   0.0000000   0.0000000
 NMagM=    0.0000000   2.7928460   2.7928460   2.7928460   0.0000000   2.7928460   0.0000000   2.7928460   2.7928460   0.0000000
 AtZNuc=   6.0000000   1.0000000   1.0000000   1.0000000   6.0000000   1.0000000   6.0000000   1.0000000   1.0000000   6.0000000

  Atom        11          12          13          14          15
 IAtWgt=           1           1           1          16           1
 AtmWgt=   1.0078250   1.0078250   1.0078250  15.9949146   1.0078250
 NucSpn=           1           1           1           0           1
 AtZEff=   0.0000000   0.0000000   0.0000000   0.0000000   0.0000000
 NQMom=    0.0000000   0.0000000   0.0000000   0.0000000   0.0000000
 NMagM=    2.7928460   2.7928460   2.7928460   0.0000000   2.7928460
 AtZNuc=   1.0000000   1.0000000   1.0000000   8.0000000   1.0000000
 Leave Link  101 at Tue Oct  6 19:37:32 2015, MaxMem=  3758096384 cpu:         0.8
 (Enter /home/hetanjin/apps/g09D01/g09/l202.exe)
                          Input orientation:                          
 ---------------------------------------------------------------------
 Center     Atomic      Atomic             Coordinates (Angstroms)
 Number     Number       Type             X           Y           Z
 ---------------------------------------------------------------------
      1          6           0       -1.806323   -0.661009   -0.005040
      2          1           0       -1.958252   -0.716758    1.081840
      3          1           0       -1.827004   -1.685250   -0.395383
      4          1           0       -2.644511   -0.106050   -0.438064
      5          6           0       -0.483274    0.033838   -0.332881
      6          1           0       -0.361437    0.072247   -1.423137
      7          6           0        0.728677   -0.689926    0.271816
      8          1           0        0.710207   -1.740580   -0.049284
      9          1           0        0.613585   -0.705897    1.367550
     10          6           0        2.067386   -0.048406   -0.102296
     11          1           0        2.083678    1.006354    0.188310
     12          1           0        2.903970   -0.557299    0.389179
     13          1           0        2.236393   -0.095797   -1.185153
     14          8           0       -0.519001    1.411277    0.056798
     15          1           0       -0.643418    1.431829    1.020164
 ---------------------------------------------------------------------
                    Distance matrix (angstroms):
                    1          2          3          4          5
     1  C    0.000000
     2  H    1.098862   0.000000
     3  H    1.096296   1.771268   0.000000
     4  H    1.094554   1.775957   1.778767   0.000000
     5  C    1.529951   2.177244   2.182838   2.168312   0.000000
     6  H    2.153221   3.073639   2.508577   2.492907   1.097715
     7  C    2.550237   2.806501   2.822646   3.496175   1.535682
     8  H    2.738677   3.073813   2.561305   3.751929   2.157170
     9  H    2.782440   2.587681   3.165997   3.772963   2.154477
    10  C    3.923055   4.249074   4.234552   4.724197   2.562382
    11  H    4.236696   4.483827   4.783185   4.897505   2.794042
    12  H    4.727899   4.913900   4.926452   5.627930   3.513436
    13  H    4.249198   4.808315   4.434106   4.937760   2.853027
    14  O    2.440367   2.765988   3.391728   2.658000   1.431944
    15  H    2.604489   2.519726   3.622269   2.914768   1.952116
                    6          7          8          9         10
     6  H    0.000000
     7  C    2.154558   0.000000
     8  H    2.514405   1.098781   0.000000
     9  H    3.056814   1.101878   1.757078   0.000000
    10  C    2.767374   1.530898   2.169838   2.169396   0.000000
    11  H    3.073744   2.172641   3.080344   2.546288   1.094183
    12  H    3.787308   2.182490   2.530810   2.495026   1.095624
    13  H    2.614115   2.179210   2.514906   3.085777   1.096991
    14  O    2.002008   2.453159   3.384732   2.735553   2.974119
    15  H    2.810284   2.635245   3.611122   2.504118   3.286255
                   11         12         13         14         15
    11  H    0.000000
    12  H    1.777143   0.000000
    13  H    1.767614   1.771204   0.000000
    14  O    2.637271   3.962638   3.377264   0.000000
    15  H    2.882718   4.115669   3.935781   0.971584   0.000000
 Stoichiometry    C4H10O
 Framework group  C1[X(C4H10O)]
 Deg. of freedom    39
 Full point group                 C1      NOp   1
 Largest Abelian subgroup         C1      NOp   1
 Largest concise Abelian subgroup C1      NOp   1
                         Standard orientation:                         
 ---------------------------------------------------------------------
 Center     Atomic      Atomic             Coordinates (Angstroms)
 Number     Number       Type             X           Y           Z
 ---------------------------------------------------------------------
      1          6           0       -1.806323   -0.661009   -0.005040
      2          1           0       -1.958252   -0.716758    1.081840
      3          1           0       -1.827004   -1.685250   -0.395383
      4          1           0       -2.644511   -0.106050   -0.438064
      5          6           0       -0.483274    0.033838   -0.332881
      6          1           0       -0.361437    0.072247   -1.423137
      7          6           0        0.728677   -0.689926    0.271816
      8          1           0        0.710207   -1.740580   -0.049284
      9          1           0        0.613585   -0.705897    1.367550
     10          6           0        2.067386   -0.048406   -0.102296
     11          1           0        2.083678    1.006354    0.188310
     12          1           0        2.903970   -0.557299    0.389179
     13          1           0        2.236393   -0.095797   -1.185153
     14          8           0       -0.519001    1.411277    0.056798
     15          1           0       -0.643418    1.431829    1.020164
 ---------------------------------------------------------------------
 Rotational constants (GHZ):      7.9560707      3.4124308      2.6510263
 Leave Link  202 at Tue Oct  6 19:37:32 2015, MaxMem=  3758096384 cpu:         0.1
 (Enter /home/hetanjin/apps/g09D01/g09/l301.exe)
 Standard basis: def2TZVP (5D, 7F)
 Ernie: Thresh=  0.10000D-02 Tol=  0.10000D-05 Strict=F.
 There are   240 symmetry adapted cartesian basis functions of A   symmetry.
 There are   215 symmetry adapted basis functions of A   symmetry.
   215 basis functions,   335 primitive gaussians,   240 cartesian basis functions
    21 alpha electrons       21 beta electrons
       nuclear repulsion energy       192.7172514368 Hartrees.
 IExCor= 4336 DFT=T Ex+Corr=M062X ExCW=0 ScaHFX=  0.540000
 ScaDFX=  1.000000  1.000000  1.000000  1.000000 ScalE2=  1.000000  1.000000
 IRadAn=      0 IRanWt=     -1 IRanGd=            0 ICorTp=0 IEmpDi=  4
 NAtoms=   15 NActive=   15 NUniq=   15 SFac= 1.00D+00 NAtFMM=   60 NAOKFM=F Big=F
 Integral buffers will be    131072 words long.
 Raffenetti 2 integral format.
 Two-electron integral symmetry is turned on.
 Leave Link  301 at Tue Oct  6 19:37:32 2015, MaxMem=  3758096384 cpu:         0.7
 (Enter /home/hetanjin/apps/g09D01/g09/l302.exe)
 NPDir=0 NMtPBC=     1 NCelOv=     1 NCel=       1 NClECP=     1 NCelD=      1
         NCelK=      1 NCelE2=     1 NClLst=     1 CellRange=     0.0.
 One-electron integrals computed using PRISM.
   1 Symmetry operations used in ECPInt.
 ECPInt:  NShTT=    4560 NPrTT=   13020 LenC2=    4531 LenP2D=   10935.
 LDataN:  DoStor=T MaxTD1= 6 Len=  172
 NBasis=   215 RedAO= T EigKep=  2.22D-04  NBF=   215
 NBsUse=   215 1.00D-06 EigRej= -1.00D+00 NBFU=   215
 Precomputing XC quadrature grid using
 IXCGrd= 4 IRadAn=           0 IRanWt=          -1 IRanGd=           0 AccXCQ= 0.00D+00.
 Generated NRdTot=       0 NPtTot=           0 NUsed=           0 NTot=          32
 NSgBfM=   240   240   240   240   240 MxSgAt=    15 MxSgA2=    15.
 Leave Link  302 at Tue Oct  6 19:37:32 2015, MaxMem=  3758096384 cpu:         3.3
 (Enter /home/hetanjin/apps/g09D01/g09/l303.exe)
 DipDrv:  MaxL=1.
 Leave Link  303 at Tue Oct  6 19:37:32 2015, MaxMem=  3758096384 cpu:         0.4
 (Enter /home/hetanjin/apps/g09D01/g09/l401.exe)
 ExpMin= 9.52D-02 ExpMax= 2.70D+04 ExpMxC= 9.22D+02 IAcc=2 IRadAn=         4 AccDes= 0.00D+00
 Harris functional with IExCor= 1009 and IRadAn=       4 diagonalized for initial guess.
 HarFok:  IExCor= 1009 AccDes= 0.00D+00 IRadAn=         4 IDoV= 1 UseB2=F ITyADJ=14
 ICtDFT=  3500011 ScaDFX=  1.000000  1.000000  1.000000  1.000000
 FoFCou: FMM=F IPFlag=           0 FMFlag=      100000 FMFlg1=           0
         NFxFlg=           0 DoJE=T BraDBF=F KetDBF=T FulRan=T
         wScrn=  0.000000 ICntrl=     500 IOpCl=  0 I1Cent=   200000004 NGrid=           0
         NMat0=    1 NMatS0=      1 NMatT0=    0 NMatD0=    1 NMtDS0=    0 NMtDT0=    0
 Petite list used in FoFCou.
 Harris En= -233.615949986025    
 JPrj=0 DoOrth=F DoCkMO=F.
 Leave Link  401 at Tue Oct  6 19:37:33 2015, MaxMem=  3758096384 cpu:         7.1
 (Enter /home/hetanjin/apps/g09D01/g09/l502.exe)
 Closed shell SCF:
 Using DIIS extrapolation, IDIIS=  1040.
 Integral symmetry usage will be decided dynamically.
 Keep R1 ints in memory in canonical form, NReq=276790460.
 IVT=      196010 IEndB=      196010 NGot=  3758096384 MDV=  3488304565
 LenX=  3488304565 LenY=  3488246524
 Requested convergence on RMS density matrix=1.00D-08 within 128 cycles.
 Requested convergence on MAX density matrix=1.00D-06.
 Requested convergence on             energy=1.00D-06.
 No special actions if energy rises.
 FoFCou: FMM=F IPFlag=           0 FMFlag=           0 FMFlg1=           0
         NFxFlg=           0 DoJE=F BraDBF=F KetDBF=F FulRan=T
         wScrn=  0.000000 ICntrl=     600 IOpCl=  0 I1Cent=           0 NGrid=           0
         NMat0=    1 NMatS0=  23220 NMatT0=    0 NMatD0=    1 NMtDS0=    0 NMtDT0=    0
 Symmetry not used in FoFCou.
 Integral accuracy reduced to 1.0D-05 until final iterations.

 Cycle   1  Pass 0  IDiag  1:
 E= -233.421726532395    
 DIIS: error= 2.88D-02 at cycle   1 NSaved=   1.
 NSaved= 1 IEnMin= 1 EnMin= -233.421726532395     IErMin= 1 ErrMin= 2.88D-02
 ErrMax= 2.88D-02  0.00D+00 EMaxC= 1.00D-01 BMatC= 2.60D-01 BMatP= 2.60D-01
 IDIUse=3 WtCom= 7.12D-01 WtEn= 2.88D-01
 Coeff-Com:  0.100D+01
 Coeff-En:   0.100D+01
 Coeff:      0.100D+01
 Gap=     0.316 Goal=   None    Shift=    0.000
 GapD=    0.316 DampG=1.000 DampE=0.500 DampFc=0.5000 IDamp=-1.
 Damping current iteration by 5.00D-01
 RMSDP=3.53D-03 MaxDP=6.91D-02              OVMax= 1.54D-01

 Cycle   2  Pass 0  IDiag  1:
 E= -233.536663400811     Delta-E=       -0.114936868415 Rises=F Damp=T
 DIIS: error= 6.68D-03 at cycle   2 NSaved=   2.
 NSaved= 2 IEnMin= 2 EnMin= -233.536663400811     IErMin= 2 ErrMin= 6.68D-03
 ErrMax= 6.68D-03  0.00D+00 EMaxC= 1.00D-01 BMatC= 1.38D-02 BMatP= 2.60D-01
 IDIUse=3 WtCom= 9.33D-01 WtEn= 6.68D-02
 Coeff-Com: -0.748D-01 0.107D+01
 Coeff-En:   0.000D+00 0.100D+01
 Coeff:     -0.698D-01 0.107D+01
 Gap=     0.413 Goal=   None    Shift=    0.000
 RMSDP=9.36D-04 MaxDP=1.99D-02 DE=-1.15D-01 OVMax= 7.35D-02

 Cycle   3  Pass 0  IDiag  1:
 E= -233.645045802654     Delta-E=       -0.108382401843 Rises=F Damp=F
 DIIS: error= 2.80D-03 at cycle   3 NSaved=   3.
 NSaved= 3 IEnMin= 3 EnMin= -233.645045802654     IErMin= 3 ErrMin= 2.80D-03
 ErrMax= 2.80D-03  0.00D+00 EMaxC= 1.00D-01 BMatC= 2.35D-03 BMatP= 1.38D-02
 IDIUse=3 WtCom= 9.72D-01 WtEn= 2.80D-02
 Coeff-Com: -0.539D-01 0.272D+00 0.782D+00
 Coeff-En:   0.000D+00 0.000D+00 0.100D+01
 Coeff:     -0.524D-01 0.264D+00 0.788D+00
 Gap=     0.400 Goal=   None    Shift=    0.000
 RMSDP=2.04D-04 MaxDP=7.31D-03 DE=-1.08D-01 OVMax= 1.27D-02

 Cycle   4  Pass 0  IDiag  1:
 E= -233.646138676911     Delta-E=       -0.001092874257 Rises=F Damp=F
 DIIS: error= 1.58D-03 at cycle   4 NSaved=   4.
 NSaved= 4 IEnMin= 4 EnMin= -233.646138676911     IErMin= 4 ErrMin= 1.58D-03
 ErrMax= 1.58D-03  0.00D+00 EMaxC= 1.00D-01 BMatC= 7.80D-04 BMatP= 2.35D-03
 IDIUse=3 WtCom= 9.84D-01 WtEn= 1.58D-02
 Coeff-Com: -0.185D-01 0.511D-01 0.396D+00 0.571D+00
 Coeff-En:   0.000D+00 0.000D+00 0.226D+00 0.774D+00
 Coeff:     -0.182D-01 0.503D-01 0.394D+00 0.574D+00
 Gap=     0.402 Goal=   None    Shift=    0.000
 RMSDP=8.80D-05 MaxDP=2.92D-03 DE=-1.09D-03 OVMax= 5.12D-03

 Cycle   5  Pass 0  IDiag  1:
 E= -233.646707278973     Delta-E=       -0.000568602062 Rises=F Damp=F
 DIIS: error= 1.95D-04 at cycle   5 NSaved=   5.
 NSaved= 5 IEnMin= 5 EnMin= -233.646707278973     IErMin= 5 ErrMin= 1.95D-04
 ErrMax= 1.95D-04  0.00D+00 EMaxC= 1.00D-01 BMatC= 1.24D-05 BMatP= 7.80D-04
 IDIUse=3 WtCom= 9.98D-01 WtEn= 1.95D-03
 Coeff-Com: -0.255D-02 0.331D-02 0.807D-01 0.176D+00 0.743D+00
 Coeff-En:   0.000D+00 0.000D+00 0.000D+00 0.000D+00 0.100D+01
 Coeff:     -0.255D-02 0.330D-02 0.806D-01 0.175D+00 0.743D+00
 Gap=     0.401 Goal=   None    Shift=    0.000
 RMSDP=1.88D-05 MaxDP=5.94D-04 DE=-5.69D-04 OVMax= 7.47D-04

 Cycle   6  Pass 0  IDiag  1:
 E= -233.646716858118     Delta-E=       -0.000009579145 Rises=F Damp=F
 DIIS: error= 7.45D-05 at cycle   6 NSaved=   6.
 NSaved= 6 IEnMin= 6 EnMin= -233.646716858118     IErMin= 6 ErrMin= 7.45D-05
 ErrMax= 7.45D-05  0.00D+00 EMaxC= 1.00D-01 BMatC= 1.12D-06 BMatP= 1.24D-05
 IDIUse=1 WtCom= 1.00D+00 WtEn= 0.00D+00
 Coeff-Com:  0.392D-03-0.225D-02 0.491D-02 0.305D-01 0.267D+00 0.699D+00
 Coeff:      0.392D-03-0.225D-02 0.491D-02 0.305D-01 0.267D+00 0.699D+00
 Gap=     0.401 Goal=   None    Shift=    0.000
 RMSDP=4.18D-06 MaxDP=1.07D-04 DE=-9.58D-06 OVMax= 2.51D-04

 Initial convergence to 1.0D-05 achieved.  Increase integral accuracy.
 Cycle   7  Pass 1  IDiag  1:
 E= -233.646555478071     Delta-E=        0.000161380048 Rises=F Damp=F
 DIIS: error= 1.95D-04 at cycle   1 NSaved=   1.
 NSaved= 1 IEnMin= 1 EnMin= -233.646555478071     IErMin= 1 ErrMin= 1.95D-04
 ErrMax= 1.95D-04  0.00D+00 EMaxC= 1.00D-01 BMatC= 1.29D-05 BMatP= 1.29D-05
 IDIUse=3 WtCom= 9.98D-01 WtEn= 1.95D-03
 Coeff-Com:  0.100D+01
 Coeff-En:   0.100D+01
 Coeff:      0.100D+01
 Gap=     0.401 Goal=   None    Shift=    0.000
 RMSDP=4.18D-06 MaxDP=1.07D-04 DE= 1.61D-04 OVMax= 4.75D-04

 Cycle   8  Pass 1  IDiag  1:
 E= -233.646561673299     Delta-E=       -0.000006195229 Rises=F Damp=F
 DIIS: error= 5.63D-05 at cycle   2 NSaved=   2.
 NSaved= 2 IEnMin= 2 EnMin= -233.646561673299     IErMin= 2 ErrMin= 5.63D-05
 ErrMax= 5.63D-05  0.00D+00 EMaxC= 1.00D-01 BMatC= 7.45D-07 BMatP= 1.29D-05
 IDIUse=1 WtCom= 1.00D+00 WtEn= 0.00D+00
 Coeff-Com:  0.949D-01 0.905D+00
 Coeff:      0.949D-01 0.905D+00
 Gap=     0.401 Goal=   None    Shift=    0.000
 RMSDP=5.10D-06 MaxDP=1.28D-04 DE=-6.20D-06 OVMax= 2.93D-04

 Cycle   9  Pass 1  IDiag  1:
 E= -233.646561978703     Delta-E=       -0.000000305404 Rises=F Damp=F
 DIIS: error= 4.40D-05 at cycle   3 NSaved=   3.
 NSaved= 3 IEnMin= 3 EnMin= -233.646561978703     IErMin= 3 ErrMin= 4.40D-05
 ErrMax= 4.40D-05  0.00D+00 EMaxC= 1.00D-01 BMatC= 4.65D-07 BMatP= 7.45D-07
 IDIUse=1 WtCom= 1.00D+00 WtEn= 0.00D+00
 Coeff-Com: -0.152D-01 0.435D+00 0.580D+00
 Coeff:     -0.152D-01 0.435D+00 0.580D+00
 Gap=     0.401 Goal=   None    Shift=    0.000
 RMSDP=2.35D-06 MaxDP=5.44D-05 DE=-3.05D-07 OVMax= 1.21D-04

 Cycle  10  Pass 1  IDiag  1:
 E= -233.646562402051     Delta-E=       -0.000000423348 Rises=F Damp=F
 DIIS: error= 5.89D-06 at cycle   4 NSaved=   4.
 NSaved= 4 IEnMin= 4 EnMin= -233.646562402051     IErMin= 4 ErrMin= 5.89D-06
 ErrMax= 5.89D-06  0.00D+00 EMaxC= 1.00D-01 BMatC= 9.41D-09 BMatP= 4.65D-07
 IDIUse=1 WtCom= 1.00D+00 WtEn= 0.00D+00
 Coeff-Com: -0.798D-02 0.114D+00 0.197D+00 0.698D+00
 Coeff:     -0.798D-02 0.114D+00 0.197D+00 0.698D+00
 Gap=     0.401 Goal=   None    Shift=    0.000
 RMSDP=3.93D-07 MaxDP=1.57D-05 DE=-4.23D-07 OVMax= 2.11D-05

 Cycle  11  Pass 1  IDiag  1:
 E= -233.646562407782     Delta-E=       -0.000000005730 Rises=F Damp=F
 DIIS: error= 2.32D-06 at cycle   5 NSaved=   5.
 NSaved= 5 IEnMin= 5 EnMin= -233.646562407782     IErMin= 5 ErrMin= 2.32D-06
 ErrMax= 2.32D-06  0.00D+00 EMaxC= 1.00D-01 BMatC= 1.83D-09 BMatP= 9.41D-09
 IDIUse=1 WtCom= 1.00D+00 WtEn= 0.00D+00
 Coeff-Com: -0.770D-03-0.250D-01-0.111D-01 0.306D+00 0.730D+00
 Coeff:     -0.770D-03-0.250D-01-0.111D-01 0.306D+00 0.730D+00
 Gap=     0.401 Goal=   None    Shift=    0.000
 RMSDP=1.84D-07 MaxDP=6.01D-06 DE=-5.73D-09 OVMax= 1.05D-05

 Cycle  12  Pass 1  IDiag  1:
 E= -233.646562409232     Delta-E=       -0.000000001450 Rises=F Damp=F
 DIIS: error= 3.33D-07 at cycle   6 NSaved=   6.
 NSaved= 6 IEnMin= 6 EnMin= -233.646562409232     IErMin= 6 ErrMin= 3.33D-07
 ErrMax= 3.33D-07  0.00D+00 EMaxC= 1.00D-01 BMatC= 4.27D-11 BMatP= 1.83D-09
 IDIUse=1 WtCom= 1.00D+00 WtEn= 0.00D+00
 Coeff-Com:  0.289D-03-0.123D-01-0.147D-01 0.349D-01 0.175D+00 0.816D+00
 Coeff:      0.289D-03-0.123D-01-0.147D-01 0.349D-01 0.175D+00 0.816D+00
 Gap=     0.401 Goal=   None    Shift=    0.000
 RMSDP=4.05D-08 MaxDP=8.05D-07 DE=-1.45D-09 OVMax= 1.85D-06

 Cycle  13  Pass 1  IDiag  1:
 E= -233.646562409273     Delta-E=       -0.000000000041 Rises=F Damp=F
 DIIS: error= 1.53D-07 at cycle   7 NSaved=   7.
 NSaved= 7 IEnMin= 7 EnMin= -233.646562409273     IErMin= 7 ErrMin= 1.53D-07
 ErrMax= 1.53D-07  0.00D+00 EMaxC= 1.00D-01 BMatC= 5.54D-12 BMatP= 4.27D-11
 IDIUse=1 WtCom= 1.00D+00 WtEn= 0.00D+00
 Coeff-Com:  0.148D-03-0.274D-02-0.499D-02-0.883D-02 0.112D-01 0.293D+00
 Coeff-Com:  0.712D+00
 Coeff:      0.148D-03-0.274D-02-0.499D-02-0.883D-02 0.112D-01 0.293D+00
 Coeff:      0.712D+00
 Gap=     0.401 Goal=   None    Shift=    0.000
 RMSDP=1.23D-08 MaxDP=3.26D-07 DE=-4.11D-11 OVMax= 6.52D-07

 Cycle  14  Pass 1  IDiag  1:
 E= -233.646562409278     Delta-E=       -0.000000000005 Rises=F Damp=F
 DIIS: error= 2.44D-08 at cycle   8 NSaved=   8.
 NSaved= 8 IEnMin= 8 EnMin= -233.646562409278     IErMin= 8 ErrMin= 2.44D-08
 ErrMax= 2.44D-08  0.00D+00 EMaxC= 1.00D-01 BMatC= 2.99D-13 BMatP= 5.54D-12
 IDIUse=1 WtCom= 1.00D+00 WtEn= 0.00D+00
 Coeff-Com:  0.226D-04 0.272D-03-0.272D-03-0.603D-02-0.128D-01 0.967D-02
 Coeff-Com:  0.201D+00 0.808D+00
 Coeff:      0.226D-04 0.272D-03-0.272D-03-0.603D-02-0.128D-01 0.967D-02
 Coeff:      0.201D+00 0.808D+00
 Gap=     0.401 Goal=   None    Shift=    0.000
 RMSDP=3.77D-09 MaxDP=1.25D-07 DE=-5.17D-12 OVMax= 1.51D-07

 SCF Done:  E(RM062X) =  -233.646562409     A.U. after   14 cycles
            NFock= 14  Conv=0.38D-08     -V/T= 2.0056
 KE= 2.323423680969D+02 PE=-9.295856670344D+02 EE= 2.708794850915D+02
 Leave Link  502 at Tue Oct  6 19:37:52 2015, MaxMem=  3758096384 cpu:       154.2
 (Enter /home/hetanjin/apps/g09D01/g09/l601.exe)
 Copying SCF densities to generalized density rwf, IOpCl= 0 IROHF=0.

 **********************************************************************

            Population analysis using the SCF density.

 **********************************************************************

 Orbital symmetries:
       Occupied  (A) (A) (A) (A) (A) (A) (A) (A) (A) (A) (A) (A)
                 (A) (A) (A) (A) (A) (A) (A) (A) (A)
       Virtual   (A) (A) (A) (A) (A) (A) (A) (A) (A) (A) (A) (A)
                 (A) (A) (A) (A) (A) (A) (A) (A) (A) (A) (A) (A)
                 (A) (A) (A) (A) (A) (A) (A) (A) (A) (A) (A) (A)
                 (A) (A) (A) (A) (A) (A) (A) (A) (A) (A) (A) (A)
                 (A) (A) (A) (A) (A) (A) (A) (A) (A) (A) (A) (A)
                 (A) (A) (A) (A) (A) (A) (A) (A) (A) (A) (A) (A)
                 (A) (A) (A) (A) (A) (A) (A) (A) (A) (A) (A) (A)
                 (A) (A) (A) (A) (A) (A) (A) (A) (A) (A) (A) (A)
                 (A) (A) (A) (A) (A) (A) (A) (A) (A) (A) (A) (A)
                 (A) (A) (A) (A) (A) (A) (A) (A) (A) (A) (A) (A)
                 (A) (A) (A) (A) (A) (A) (A) (A) (A) (A) (A) (A)
                 (A) (A) (A) (A) (A) (A) (A) (A) (A) (A) (A) (A)
                 (A) (A) (A) (A) (A) (A) (A) (A) (A) (A) (A) (A)
                 (A) (A) (A) (A) (A) (A) (A) (A) (A) (A) (A) (A)
                 (A) (A) (A) (A) (A) (A) (A) (A) (A) (A) (A) (A)
                 (A) (A) (A) (A) (A) (A) (A) (A) (A) (A) (A) (A)
                 (A) (A)
 The electronic state is 1-A.
 Alpha  occ. eigenvalues --  -19.62012 -10.58630 -10.53371 -10.52752 -10.52098
 Alpha  occ. eigenvalues --   -1.13835  -0.88273  -0.82082  -0.72173  -0.67587
 Alpha  occ. eigenvalues --   -0.54753  -0.54617  -0.51618  -0.48669  -0.47460
 Alpha  occ. eigenvalues --   -0.44021  -0.43013  -0.41078  -0.39959  -0.37983
 Alpha  occ. eigenvalues --   -0.34465
 Alpha virt. eigenvalues --    0.05674   0.08923   0.09583   0.11597   0.13077
 Alpha virt. eigenvalues --    0.13903   0.14689   0.15934   0.17185   0.17652
 Alpha virt. eigenvalues --    0.19022   0.20197   0.21832   0.22910   0.26309
 Alpha virt. eigenvalues --    0.26702   0.27988   0.30936   0.33169   0.33609
 Alpha virt. eigenvalues --    0.35957   0.38432   0.38798   0.40908   0.41561
 Alpha virt. eigenvalues --    0.45214   0.46087   0.46558   0.47553   0.48760
 Alpha virt. eigenvalues --    0.50185   0.50636   0.51411   0.52161   0.53097
 Alpha virt. eigenvalues --    0.53480   0.56818   0.60711   0.61614   0.63499
 Alpha virt. eigenvalues --    0.66434   0.68473   0.71422   0.75440   0.79496
 Alpha virt. eigenvalues --    0.83259   0.85032   0.86366   0.89971   0.92228
 Alpha virt. eigenvalues --    0.94211   1.00812   1.02317   1.03111   1.06810
 Alpha virt. eigenvalues --    1.08251   1.15516   1.16442   1.17303   1.18720
 Alpha virt. eigenvalues --    1.22306   1.24065   1.26893   1.33738   1.43068
 Alpha virt. eigenvalues --    1.48104   1.51741   1.55106   1.56755   1.57536
 Alpha virt. eigenvalues --    1.59044   1.59780   1.61174   1.63157   1.64696
 Alpha virt. eigenvalues --    1.65900   1.67014   1.71612   1.74582   1.78132
 Alpha virt. eigenvalues --    1.81536   1.82145   1.84173   1.87028   1.90643
 Alpha virt. eigenvalues --    1.92066   1.94007   1.95832   1.98150   2.02744
 Alpha virt. eigenvalues --    2.09097   2.10134   2.11716   2.17955   2.22121
 Alpha virt. eigenvalues --    2.25347   2.28846   2.29933   2.32622   2.33205
 Alpha virt. eigenvalues --    2.35347   2.36380   2.38236   2.39618   2.41622
 Alpha virt. eigenvalues --    2.43049   2.45071   2.48267   2.51439   2.53105
 Alpha virt. eigenvalues --    2.56393   2.57637   2.59388   2.60616   2.64537
 Alpha virt. eigenvalues --    2.65623   2.66603   2.67872   2.70563   2.75449
 Alpha virt. eigenvalues --    2.78477   2.80081   2.82539   2.88389   2.92251
 Alpha virt. eigenvalues --    2.94451   2.96202   3.05640   3.09395   3.11261
 Alpha virt. eigenvalues --    3.12301   3.14623   3.16471   3.16793   3.20903
 Alpha virt. eigenvalues --    3.21484   3.25498   3.27089   3.30288   3.33372
 Alpha virt. eigenvalues --    3.34097   3.35704   3.37385   3.40415   3.42024
 Alpha virt. eigenvalues --    3.44793   3.50199   3.51462   3.55013   3.57061
 Alpha virt. eigenvalues --    3.59267   3.66465   3.69447   3.70459   3.78056
 Alpha virt. eigenvalues --    3.82092   3.85424   3.88953   3.95024   3.99911
 Alpha virt. eigenvalues --    4.01912   4.07694   4.10705   4.17719   4.26047
 Alpha virt. eigenvalues --    4.28496   4.33101   4.39501   4.42956   4.46020
 Alpha virt. eigenvalues --    4.50943   4.56887   4.60485   4.67679   4.75885
 Alpha virt. eigenvalues --    4.81824   4.96018   5.29560   5.38295   5.48885
 Alpha virt. eigenvalues --    5.72545   5.78547   5.89528   6.26856   6.46338
 Alpha virt. eigenvalues --    6.70907   6.82002   6.96894   7.13938  22.39173
 Alpha virt. eigenvalues --   22.44873  22.51754  22.62682  44.01480
          Condensed to atoms (all electrons):
               1          2          3          4          5          6
     1  C    5.073069   0.383109   0.407925   0.426147   0.307556  -0.061833
     2  H    0.383109   0.556095  -0.028771  -0.026881  -0.010163   0.010367
     3  H    0.407925  -0.028771   0.545934  -0.019404  -0.046728  -0.003035
     4  H    0.426147  -0.026881  -0.019404   0.511682  -0.052566  -0.008215
     5  C    0.307556  -0.010163  -0.046728  -0.052566   4.994628   0.420467
     6  H   -0.061833   0.010367  -0.003035  -0.008215   0.420467   0.624986
     7  C   -0.061937  -0.018641   0.001318   0.013012   0.288506  -0.072238
     8  H   -0.001820   0.000534  -0.001948  -0.000398  -0.049265  -0.000694
     9  H   -0.012683   0.005655   0.000793  -0.000349  -0.018411   0.010010
    10  C    0.012823  -0.000209  -0.000345  -0.000587  -0.048713  -0.006502
    11  H    0.000064   0.000028  -0.000147  -0.000016  -0.016320  -0.000322
    12  H   -0.000572   0.000000  -0.000022   0.000018   0.011065  -0.000431
    13  H   -0.000079  -0.000005   0.000027  -0.000004  -0.004323   0.003316
    14  O   -0.036740  -0.004588   0.006235   0.001615   0.207218  -0.047210
    15  H   -0.011892   0.004927   0.000162  -0.001290  -0.022896   0.012590
               7          8          9         10         11         12
     1  C   -0.061937  -0.001820  -0.012683   0.012823   0.000064  -0.000572
     2  H   -0.018641   0.000534   0.005655  -0.000209   0.000028   0.000000
     3  H    0.001318  -0.001948   0.000793  -0.000345  -0.000147  -0.000022
     4  H    0.013012  -0.000398  -0.000349  -0.000587  -0.000016   0.000018
     5  C    0.288506  -0.049265  -0.018411  -0.048713  -0.016320   0.011065
     6  H   -0.072238  -0.000694   0.010010  -0.006502  -0.000322  -0.000431
     7  C    5.212222   0.415256   0.395825   0.256078  -0.032547  -0.047814
     8  H    0.415256   0.568217  -0.029711  -0.035331   0.007703  -0.004301
     9  H    0.395825  -0.029711   0.570957  -0.043126  -0.005038  -0.005379
    10  C    0.256078  -0.035331  -0.043126   5.056382   0.410772   0.417112
    11  H   -0.032547   0.007703  -0.005038   0.410772   0.522631  -0.025088
    12  H   -0.047814  -0.004301  -0.005379   0.417112  -0.025088   0.541037
    13  H   -0.040578  -0.005205   0.007290   0.407094  -0.025671  -0.024809
    14  O   -0.019592   0.006987  -0.008010  -0.021747   0.018117   0.000535
    15  H   -0.011002   0.000377   0.004625  -0.002288  -0.000040  -0.000123
              13         14         15
     1  C   -0.000079  -0.036740  -0.011892
     2  H   -0.000005  -0.004588   0.004927
     3  H    0.000027   0.006235   0.000162
     4  H   -0.000004   0.001615  -0.001290
     5  C   -0.004323   0.207218  -0.022896
     6  H    0.003316  -0.047210   0.012590
     7  C   -0.040578  -0.019592  -0.011002
     8  H   -0.005205   0.006987   0.000377
     9  H    0.007290  -0.008010   0.004625
    10  C    0.407094  -0.021747  -0.002288
    11  H   -0.025671   0.018117  -0.000040
    12  H   -0.024809   0.000535  -0.000123
    13  H    0.548851   0.000272   0.000092
    14  O    0.000272   8.076952   0.284538
    15  H    0.000092   0.284538   0.433213
 Mulliken charges:
               1
     1  C   -0.423138
     2  H    0.128544
     3  H    0.138006
     4  H    0.157235
     5  C    0.039945
     6  H    0.118743
     7  C   -0.277868
     8  H    0.129597
     9  H    0.127551
    10  C   -0.401415
    11  H    0.145873
    12  H    0.138771
    13  H    0.133733
    14  O   -0.464584
    15  H    0.309006
 Sum of Mulliken charges =   0.00000
 Mulliken charges with hydrogens summed into heavy atoms:
               1
     1  C    0.000647
     5  C    0.158689
     7  C   -0.020720
    10  C    0.016962
    14  O   -0.155578
 Electronic spatial extent (au):  <R**2>=            526.2782
 Charge=              0.0000 electrons
 Dipole moment (field-independent basis, Debye):
    X=             -0.1356    Y=             -1.3902    Z=              0.9310  Tot=              1.6787
 Quadrupole moment (field-independent basis, Debye-Ang):
   XX=            -33.9003   YY=            -36.1950   ZZ=            -31.1707
   XY=              0.3129   XZ=             -0.6126   YZ=              2.3871
 Traceless Quadrupole moment (field-independent basis, Debye-Ang):
   XX=             -0.1450   YY=             -2.4397   ZZ=              2.5846
   XY=              0.3129   XZ=             -0.6126   YZ=              2.3871
 Octapole moment (field-independent basis, Debye-Ang**2):
  XXX=             -3.3501  YYY=              0.6536  ZZZ=              2.0502  XYY=              0.3843
  XXY=              1.4376  XXZ=              0.5161  XZZ=             -2.2254  YZZ=              4.8775
  YYZ=              3.2957  XYZ=             -1.6270
 Hexadecapole moment (field-independent basis, Debye-Ang**3):
 XXXX=           -467.2418 YYYY=           -181.2893 ZZZZ=            -71.4141 XXXY=             -8.0913
 XXXZ=              4.4353 YYYX=             -0.1161 YYYZ=             10.4122 ZZZX=             -3.6902
 ZZZY=              4.1069 XXYY=           -108.2758 XXZZ=            -88.5660 YYZZ=            -39.0349
 XXYZ=              0.5935 YYXZ=             -1.2545 ZZXY=             -3.4153
 N-N= 1.927172514368D+02 E-N=-9.295856674035D+02  KE= 2.323423680969D+02
 No NMR shielding tensors so no spin-rotation constants.
 Leave Link  601 at Tue Oct  6 19:37:52 2015, MaxMem=  3758096384 cpu:         2.2
 (Enter /home/hetanjin/apps/g09D01/g09/l9999.exe)
 1\1\GINC-COMPUTE-0-11\SP\RM062X\def2TZVP\C4H10O1\HETANJIN\06-Oct-2015\
 0\\#p M062X/def2TZVP\\using ub3lyp/6-31G(d) to scan\\0,1\C,0,-1.806323
 ,-0.661009,-0.00504\H,0,-1.958252,-0.716758,1.08184\H,0,-1.827004,-1.6
 8525,-0.395383\H,0,-2.644511,-0.10605,-0.438064\C,0,-0.483274,0.033838
 ,-0.332881\H,0,-0.361437,0.072247,-1.423137\C,0,0.728677,-0.689926,0.2
 71816\H,0,0.710207,-1.74058,-0.049284\H,0,0.613585,-0.705897,1.36755\C
 ,0,2.067386,-0.048406,-0.102296\H,0,2.083678,1.006354,0.18831\H,0,2.90
 397,-0.557299,0.389179\H,0,2.236393,-0.095797,-1.185153\O,0,-0.519001,
 1.411277,0.056798\H,0,-0.643418,1.431829,1.020164\\Version=ES64L-G09Re
 vD.01\State=1-A\HF=-233.6465624\RMSD=3.771e-09\Dipole=-0.0533444,-0.54
 69637,0.3662998\Quadrupole=-0.1077728,-1.8138322,1.9216049,0.2326144,-
 0.4554541,1.7747706\PG=C01 [X(C4H10O1)]\\@


 YE HAVE SOWN MUCH, AND BRING IN LITTLE.
 YE EAT, BUT YE HAVE NOT ENOUGH.
 YE DRINK, BUT YE ARE NOT FILLED WITH DRINK.
 YE CLOTHE YOU, BUT THERE IS NONE WARM.
 AND HE THAT EARNETH WAGES EARNETH WAGES TO PUT
 IT INTO A BAG WITH HOLES.
                                     HAGGAI I,6
 Job cpu time:       0 days  0 hours  2 minutes 49.4 seconds.
 File lengths (MBytes):  RWF=     20 Int=      0 D2E=      0 Chk=      3 Scr=      1
 Normal termination of Gaussian 09 at Tue Oct  6 19:37:52 2015.
