using ub3lyp/6-31G(d) to scan                                           
SP        RM062X                                                      def2TZVP            
Number of atoms                            I               16
Info1-9                                    I   N=           9
          29          25           0           0           0         110
           1          18        -502
Charge                                     I                0
Multiplicity                               I                1
Number of electrons                        I               50
Number of alpha electrons                  I               25
Number of beta electrons                   I               25
Number of basis functions                  I              246
Number of independent functions            I              246
Number of point charges in /Mol/           I                0
Number of translation vectors              I                0
Atomic numbers                             I   N=          16
           6           8           8           1           6           1
           1           1           6           1           1           1
           6           1           1           1
Nuclear charges                            R   N=          16
  6.00000000E+00  8.00000000E+00  8.00000000E+00  1.00000000E+00  6.00000000E+00
  1.00000000E+00  1.00000000E+00  1.00000000E+00  6.00000000E+00  1.00000000E+00
  1.00000000E+00  1.00000000E+00  6.00000000E+00  1.00000000E+00  1.00000000E+00
  1.00000000E+00
Current cartesian coordinates              R   N=          48
  7.31741643E-01  6.00932910E-04  6.80660456E-02 -1.37246463E+00 -1.05461836E-01
 -1.68393307E+00 -3.72807628E+00  2.00794740E-01 -2.90441458E-01 -4.42155286E+00
 -1.49329183E+00 -4.75443757E-01  7.73901433E-01  2.56300721E+00  1.41498157E+00
 -9.25805178E-01  2.80779099E+00  2.56343240E+00  2.42813745E+00  2.70668120E+00
  2.65276353E+00  8.52958126E-01  4.09932810E+00  3.12201654E-02  5.87491288E-01
 -2.20068057E+00  1.94564880E+00  2.24465072E+00 -2.21219089E+00  3.18632581E+00
 -1.09804049E+00 -2.03895025E+00  3.13182800E+00  5.22700138E-01 -4.00993460E+00
  9.39010585E-01  2.99317691E+00 -2.87895997E-01 -1.72034620E+00  3.00868211E+00
  1.23343181E+00 -3.12136459E+00  4.75873480E+00 -2.07348310E-01 -6.43995989E-01
  2.91600427E+00 -2.09838969E+00 -2.71888316E+00
Force Field                                I                0
Int Atom Types                             I   N=          16
           0           0           0           0           0           0
           0           0           0           0           0           0
           0           0           0           0
MM charges                                 R   N=          16
  0.00000000E+00  0.00000000E+00  0.00000000E+00  0.00000000E+00  0.00000000E+00
  0.00000000E+00  0.00000000E+00  0.00000000E+00  0.00000000E+00  0.00000000E+00
  0.00000000E+00  0.00000000E+00  0.00000000E+00  0.00000000E+00  0.00000000E+00
  0.00000000E+00
Integer atomic weights                     I   N=          16
          12          16          16           1          12           1
           1           1          12           1           1           1
          12           1           1           1
Real atomic weights                        R   N=          16
  1.20000000E+01  1.59949146E+01  1.59949146E+01  1.00782504E+00  1.20000000E+01
  1.00782504E+00  1.00782504E+00  1.00782504E+00  1.20000000E+01  1.00782504E+00
  1.00782504E+00  1.00782504E+00  1.20000000E+01  1.00782504E+00  1.00782504E+00
  1.00782504E+00
Atom fragment info                         I   N=          16
           0           0           0           0           0           0
           0           0           0           0           0           0
           0           0           0           0
Atom residue num                           I   N=          16
           0           0           0           0           0           0
           0           0           0           0           0           0
           0           0           0           0
Nuclear spins                              I   N=          16
           0           0           0           1           0           1
           1           1           0           1           1           1
           0           1           1           1
Nuclear ZEff                               R   N=          16
 -3.60000000E+00 -5.60000000E+00 -5.60000000E+00 -1.00000000E+00 -3.60000000E+00
 -1.00000000E+00 -1.00000000E+00 -1.00000000E+00 -3.60000000E+00 -1.00000000E+00
 -1.00000000E+00 -1.00000000E+00 -3.60000000E+00 -1.00000000E+00 -1.00000000E+00
 -1.00000000E+00
Nuclear ZNuc                               R   N=          16
  6.00000000E+00  8.00000000E+00  8.00000000E+00  1.00000000E+00  6.00000000E+00
  1.00000000E+00  1.00000000E+00  1.00000000E+00  6.00000000E+00  1.00000000E+00
  1.00000000E+00  1.00000000E+00  6.00000000E+00  1.00000000E+00  1.00000000E+00
  1.00000000E+00
Nuclear QMom                               R   N=          16
  0.00000000E+00  0.00000000E+00  0.00000000E+00  0.00000000E+00  0.00000000E+00
  0.00000000E+00  0.00000000E+00  0.00000000E+00  0.00000000E+00  0.00000000E+00
  0.00000000E+00  0.00000000E+00  0.00000000E+00  0.00000000E+00  0.00000000E+00
  0.00000000E+00
Nuclear GFac                               R   N=          16
  0.00000000E+00  0.00000000E+00  0.00000000E+00  2.79284600E+00  0.00000000E+00
  2.79284600E+00  2.79284600E+00  2.79284600E+00  0.00000000E+00  2.79284600E+00
  2.79284600E+00  2.79284600E+00  0.00000000E+00  2.79284600E+00  2.79284600E+00
  2.79284600E+00
MicOpt                                     I   N=          16
          -1          -1          -1          -1          -1          -1
          -1          -1          -1          -1          -1          -1
          -1          -1          -1          -1
Number of contracted shells                I              106
Number of primitive shells                 I              180
Pure/Cartesian d shells                    I                0
Pure/Cartesian f shells                    I                0
Highest angular momentum                   I                3
Largest degree of contraction              I                6
Shell types                                I   N=         106
           0           0           0           0           0           1
           1           1          -2          -2          -3           0
           0           0           0           0           1           1
           1          -2          -2          -3           0           0
           0           0           0           1           1           1
          -2          -2          -3           0           0           0
           1           0           0           0           0           0
           1           1           1          -2          -2          -3
           0           0           0           1           0           0
           0           1           0           0           0           1
           0           0           0           0           0           1
           1           1          -2          -2          -3           0
           0           0           1           0           0           0
           1           0           0           0           1           0
           0           0           0           0           1           1
           1          -2          -2          -3           0           0
           0           1           0           0           0           1
           0           0           0           1
Number of primitives per shell             I   N=         106
           6           2           1           1           1           4
           1           1           1           1           1           6
           2           1           1           1           4           1
           1           1           1           1           6           2
           1           1           1           4           1           1
           1           1           1           3           1           1
           1           6           2           1           1           1
           4           1           1           1           1           1
           3           1           1           1           3           1
           1           1           3           1           1           1
           6           2           1           1           1           4
           1           1           1           1           1           3
           1           1           1           3           1           1
           1           3           1           1           1           6
           2           1           1           1           4           1
           1           1           1           1           3           1
           1           1           3           1           1           1
           3           1           1           1
Shell to atom map                          I   N=         106
           1           1           1           1           1           1
           1           1           1           1           1           2
           2           2           2           2           2           2
           2           2           2           2           3           3
           3           3           3           3           3           3
           3           3           3           4           4           4
           4           5           5           5           5           5
           5           5           5           5           5           5
           6           6           6           6           7           7
           7           7           8           8           8           8
           9           9           9           9           9           9
           9           9           9           9           9          10
          10          10          10          11          11          11
          11          12          12          12          12          13
          13          13          13          13          13          13
          13          13          13          13          14          14
          14          14          15          15          15          15
          16          16          16          16
Primitive exponents                        R   N=         180
  1.35753497E+04  2.03523337E+03  4.63225624E+02  1.31200196E+02  4.28530159E+01
  1.55841858E+01  6.20671385E+00  2.57648965E+00  5.76963394E-01  2.29728314E-01
  9.51644400E-02  3.46972322E+01  7.95826228E+00  2.37808269E+00  8.14332082E-01
  2.88875473E-01  1.00568237E-01  1.09700000E+00  3.18000000E-01  7.61000000E-01
  2.70323826E+04  4.05238714E+03  9.22327227E+02  2.61240710E+02  8.53546414E+01
  3.10350352E+01  1.22608607E+01  4.99870760E+00  1.17031082E+00  4.64747410E-01
  1.85045364E-01  6.32749548E+01  1.46270494E+01  4.45012235E+00  1.52757996E+00
  5.29351179E-01  1.74784213E-01  2.31400000E+00  6.45000000E-01  1.42800000E+00
  2.70323826E+04  4.05238714E+03  9.22327227E+02  2.61240710E+02  8.53546414E+01
  3.10350352E+01  1.22608607E+01  4.99870760E+00  1.17031082E+00  4.64747410E-01
  1.85045364E-01  6.32749548E+01  1.46270494E+01  4.45012235E+00  1.52757996E+00
  5.29351179E-01  1.74784213E-01  2.31400000E+00  6.45000000E-01  1.42800000E+00
  3.40613410E+01  5.12357460E+00  1.16466260E+00  3.27230410E-01  1.03072410E-01
  8.00000000E-01  1.35753497E+04  2.03523337E+03  4.63225624E+02  1.31200196E+02
  4.28530159E+01  1.55841858E+01  6.20671385E+00  2.57648965E+00  5.76963394E-01
  2.29728314E-01  9.51644400E-02  3.46972322E+01  7.95826228E+00  2.37808269E+00
  8.14332082E-01  2.88875473E-01  1.00568237E-01  1.09700000E+00  3.18000000E-01
  7.61000000E-01  3.40613410E+01  5.12357460E+00  1.16466260E+00  3.27230410E-01
  1.03072410E-01  8.00000000E-01  3.40613410E+01  5.12357460E+00  1.16466260E+00
  3.27230410E-01  1.03072410E-01  8.00000000E-01  3.40613410E+01  5.12357460E+00
  1.16466260E+00  3.27230410E-01  1.03072410E-01  8.00000000E-01  1.35753497E+04
  2.03523337E+03  4.63225624E+02  1.31200196E+02  4.28530159E+01  1.55841858E+01
  6.20671385E+00  2.57648965E+00  5.76963394E-01  2.29728314E-01  9.51644400E-02
  3.46972322E+01  7.95826228E+00  2.37808269E+00  8.14332082E-01  2.88875473E-01
  1.00568237E-01  1.09700000E+00  3.18000000E-01  7.61000000E-01  3.40613410E+01
  5.12357460E+00  1.16466260E+00  3.27230410E-01  1.03072410E-01  8.00000000E-01
  3.40613410E+01  5.12357460E+00  1.16466260E+00  3.27230410E-01  1.03072410E-01
  8.00000000E-01  3.40613410E+01  5.12357460E+00  1.16466260E+00  3.27230410E-01
  1.03072410E-01  8.00000000E-01  1.35753497E+04  2.03523337E+03  4.63225624E+02
  1.31200196E+02  4.28530159E+01  1.55841858E+01  6.20671385E+00  2.57648965E+00
  5.76963394E-01  2.29728314E-01  9.51644400E-02  3.46972322E+01  7.95826228E+00
  2.37808269E+00  8.14332082E-01  2.88875473E-01  1.00568237E-01  1.09700000E+00
  3.18000000E-01  7.61000000E-01  3.40613410E+01  5.12357460E+00  1.16466260E+00
  3.27230410E-01  1.03072410E-01  8.00000000E-01  3.40613410E+01  5.12357460E+00
  1.16466260E+00  3.27230410E-01  1.03072410E-01  8.00000000E-01  3.40613410E+01
  5.12357460E+00  1.16466260E+00  3.27230410E-01  1.03072410E-01  8.00000000E-01
Contraction coefficients                   R   N=         180
  6.06455036E-04  4.69790889E-03  2.43324776E-02  9.73999683E-02  3.01955843E-01
  6.62336091E-01  6.55953085E-01  3.75856333E-01  1.00000000E+00  1.00000000E+00
  1.00000000E+00  1.13272200E-02  7.61696592E-02  3.01922522E-01  7.27850273E-01
  1.00000000E+00  1.00000000E+00  1.00000000E+00  1.00000000E+00  1.00000000E+00
  5.72273352E-04  4.43532335E-03  2.30201077E-02  9.28224907E-02  2.93785000E-01
  6.74016045E-01  6.38399370E-01  3.95345871E-01  1.00000000E+00  1.00000000E+00
  1.00000000E+00  1.20183322E-02  8.30054218E-02  3.19917439E-01  7.07155429E-01
  1.00000000E+00  1.00000000E+00  1.00000000E+00  1.00000000E+00  1.00000000E+00
  5.72273352E-04  4.43532335E-03  2.30201077E-02  9.28224907E-02  2.93785000E-01
  6.74016045E-01  6.38399370E-01  3.95345871E-01  1.00000000E+00  1.00000000E+00
  1.00000000E+00  1.20183322E-02  8.30054218E-02  3.19917439E-01  7.07155429E-01
  1.00000000E+00  1.00000000E+00  1.00000000E+00  1.00000000E+00  1.00000000E+00
  2.54393072E-02  1.90085949E-01  8.52441130E-01  1.00000000E+00  1.00000000E+00
  1.00000000E+00  6.06455036E-04  4.69790889E-03  2.43324776E-02  9.73999683E-02
  3.01955843E-01  6.62336091E-01  6.55953085E-01  3.75856333E-01  1.00000000E+00
  1.00000000E+00  1.00000000E+00  1.13272200E-02  7.61696592E-02  3.01922522E-01
  7.27850273E-01  1.00000000E+00  1.00000000E+00  1.00000000E+00  1.00000000E+00
  1.00000000E+00  2.54393072E-02  1.90085949E-01  8.52441130E-01  1.00000000E+00
  1.00000000E+00  1.00000000E+00  2.54393072E-02  1.90085949E-01  8.52441130E-01
  1.00000000E+00  1.00000000E+00  1.00000000E+00  2.54393072E-02  1.90085949E-01
  8.52441130E-01  1.00000000E+00  1.00000000E+00  1.00000000E+00  6.06455036E-04
  4.69790889E-03  2.43324776E-02  9.73999683E-02  3.01955843E-01  6.62336091E-01
  6.55953085E-01  3.75856333E-01  1.00000000E+00  1.00000000E+00  1.00000000E+00
  1.13272200E-02  7.61696592E-02  3.01922522E-01  7.27850273E-01  1.00000000E+00
  1.00000000E+00  1.00000000E+00  1.00000000E+00  1.00000000E+00  2.54393072E-02
  1.90085949E-01  8.52441130E-01  1.00000000E+00  1.00000000E+00  1.00000000E+00
  2.54393072E-02  1.90085949E-01  8.52441130E-01  1.00000000E+00  1.00000000E+00
  1.00000000E+00  2.54393072E-02  1.90085949E-01  8.52441130E-01  1.00000000E+00
  1.00000000E+00  1.00000000E+00  6.06455036E-04  4.69790889E-03  2.43324776E-02
  9.73999683E-02  3.01955843E-01  6.62336091E-01  6.55953085E-01  3.75856333E-01
  1.00000000E+00  1.00000000E+00  1.00000000E+00  1.13272200E-02  7.61696592E-02
  3.01922522E-01  7.27850273E-01  1.00000000E+00  1.00000000E+00  1.00000000E+00
  1.00000000E+00  1.00000000E+00  2.54393072E-02  1.90085949E-01  8.52441130E-01
  1.00000000E+00  1.00000000E+00  1.00000000E+00  2.54393072E-02  1.90085949E-01
  8.52441130E-01  1.00000000E+00  1.00000000E+00  1.00000000E+00  2.54393072E-02
  1.90085949E-01  8.52441130E-01  1.00000000E+00  1.00000000E+00  1.00000000E+00
Coordinates of each shell                  R   N=         318
  7.31741454E-01  6.01320444E-04  6.80660834E-02  7.31741454E-01  6.01320444E-04
  6.80660834E-02  7.31741454E-01  6.01320444E-04  6.80660834E-02  7.31741454E-01
  6.01320444E-04  6.80660834E-02  7.31741454E-01  6.01320444E-04  6.80660834E-02
  7.31741454E-01  6.01320444E-04  6.80660834E-02  7.31741454E-01  6.01320444E-04
  6.80660834E-02  7.31741454E-01  6.01320444E-04  6.80660834E-02  7.31741454E-01
  6.01320444E-04  6.80660834E-02  7.31741454E-01  6.01320444E-04  6.80660834E-02
  7.31741454E-01  6.01320444E-04  6.80660834E-02 -1.37246482E+00 -1.05461367E-01
 -1.68393303E+00 -1.37246482E+00 -1.05461367E-01 -1.68393303E+00 -1.37246482E+00
 -1.05461367E-01 -1.68393303E+00 -1.37246482E+00 -1.05461367E-01 -1.68393303E+00
 -1.37246482E+00 -1.05461367E-01 -1.68393303E+00 -1.37246482E+00 -1.05461367E-01
 -1.68393303E+00 -1.37246482E+00 -1.05461367E-01 -1.68393303E+00 -1.37246482E+00
 -1.05461367E-01 -1.68393303E+00 -1.37246482E+00 -1.05461367E-01 -1.68393303E+00
 -1.37246482E+00 -1.05461367E-01 -1.68393303E+00 -1.37246482E+00 -1.05461367E-01
 -1.68393303E+00 -3.72807646E+00  2.00795299E-01 -2.90441420E-01 -3.72807646E+00
  2.00795299E-01 -2.90441420E-01 -3.72807646E+00  2.00795299E-01 -2.90441420E-01
 -3.72807646E+00  2.00795299E-01 -2.90441420E-01 -3.72807646E+00  2.00795299E-01
 -2.90441420E-01 -3.72807646E+00  2.00795299E-01 -2.90441420E-01 -3.72807646E+00
  2.00795299E-01 -2.90441420E-01 -3.72807646E+00  2.00795299E-01 -2.90441420E-01
 -3.72807646E+00  2.00795299E-01 -2.90441420E-01 -3.72807646E+00  2.00795299E-01
 -2.90441420E-01 -3.72807646E+00  2.00795299E-01 -2.90441420E-01 -4.42155311E+00
 -1.49329124E+00 -4.75443719E-01 -4.42155311E+00 -1.49329124E+00 -4.75443719E-01
 -4.42155311E+00 -1.49329124E+00 -4.75443719E-01 -4.42155311E+00 -1.49329124E+00
 -4.75443719E-01  7.73901343E-01  2.56300759E+00  1.41498161E+00  7.73901343E-01
  2.56300759E+00  1.41498161E+00  7.73901343E-01  2.56300759E+00  1.41498161E+00
  7.73901343E-01  2.56300759E+00  1.41498161E+00  7.73901343E-01  2.56300759E+00
  1.41498161E+00  7.73901343E-01  2.56300759E+00  1.41498161E+00  7.73901343E-01
  2.56300759E+00  1.41498161E+00  7.73901343E-01  2.56300759E+00  1.41498161E+00
  7.73901343E-01  2.56300759E+00  1.41498161E+00  7.73901343E-01  2.56300759E+00
  1.41498161E+00  7.73901343E-01  2.56300759E+00  1.41498161E+00 -9.25805259E-01
  2.80779144E+00  2.56343243E+00 -9.25805259E-01  2.80779144E+00  2.56343243E+00
 -9.25805259E-01  2.80779144E+00  2.56343243E+00 -9.25805259E-01  2.80779144E+00
  2.56343243E+00  2.42813737E+00  2.70668152E+00  2.65276357E+00  2.42813737E+00
  2.70668152E+00  2.65276357E+00  2.42813737E+00  2.70668152E+00  2.65276357E+00
  2.42813737E+00  2.70668152E+00  2.65276357E+00  8.52958095E-01  4.09932848E+00
  3.12202032E-02  8.52958095E-01  4.09932848E+00  3.12202032E-02  8.52958095E-01
  4.09932848E+00  3.12202032E-02  8.52958095E-01  4.09932848E+00  3.12202032E-02
  5.87491014E-01 -2.20068017E+00  1.94564884E+00  5.87491014E-01 -2.20068017E+00
  1.94564884E+00  5.87491014E-01 -2.20068017E+00  1.94564884E+00  5.87491014E-01
 -2.20068017E+00  1.94564884E+00  5.87491014E-01 -2.20068017E+00  1.94564884E+00
  5.87491014E-01 -2.20068017E+00  1.94564884E+00  5.87491014E-01 -2.20068017E+00
  1.94564884E+00  5.87491014E-01 -2.20068017E+00  1.94564884E+00  5.87491014E-01
 -2.20068017E+00  1.94564884E+00  5.87491014E-01 -2.20068017E+00  1.94564884E+00
  5.87491014E-01 -2.20068017E+00  1.94564884E+00  2.24465044E+00 -2.21219056E+00
  3.18632585E+00  2.24465044E+00 -2.21219056E+00  3.18632585E+00  2.24465044E+00
 -2.21219056E+00  3.18632585E+00  2.24465044E+00 -2.21219056E+00  3.18632585E+00
 -1.09804075E+00 -2.03894979E+00  3.13182804E+00 -1.09804075E+00 -2.03894979E+00
  3.13182804E+00 -1.09804075E+00 -2.03894979E+00  3.13182804E+00 -1.09804075E+00
 -2.03894979E+00  3.13182804E+00  5.22699795E-01 -4.00993421E+00  9.39010622E-01
  5.22699795E-01 -4.00993421E+00  9.39010622E-01  5.22699795E-01 -4.00993421E+00
  9.39010622E-01  5.22699795E-01 -4.00993421E+00  9.39010622E-01  2.99317671E+00
 -2.87895697E-01 -1.72034616E+00  2.99317671E+00 -2.87895697E-01 -1.72034616E+00
  2.99317671E+00 -2.87895697E-01 -1.72034616E+00  2.99317671E+00 -2.87895697E-01
 -1.72034616E+00  2.99317671E+00 -2.87895697E-01 -1.72034616E+00  2.99317671E+00
 -2.87895697E-01 -1.72034616E+00  2.99317671E+00 -2.87895697E-01 -1.72034616E+00
  2.99317671E+00 -2.87895697E-01 -1.72034616E+00  2.99317671E+00 -2.87895697E-01
 -1.72034616E+00  2.99317671E+00 -2.87895697E-01 -1.72034616E+00  2.99317671E+00
 -2.87895697E-01 -1.72034616E+00  3.00868197E+00  1.23343211E+00 -3.12136455E+00
  3.00868197E+00  1.23343211E+00 -3.12136455E+00  3.00868197E+00  1.23343211E+00
 -3.12136455E+00  3.00868197E+00  1.23343211E+00 -3.12136455E+00  4.75873461E+00
 -2.07348078E-01 -6.43995952E-01  4.75873461E+00 -2.07348078E-01 -6.43995952E-01
  4.75873461E+00 -2.07348078E-01 -6.43995952E-01  4.75873461E+00 -2.07348078E-01
 -6.43995952E-01  2.91600400E+00 -2.09838939E+00 -2.71888312E+00  2.91600400E+00
 -2.09838939E+00 -2.71888312E+00  2.91600400E+00 -2.09838939E+00 -2.71888312E+00
  2.91600400E+00 -2.09838939E+00 -2.71888312E+00
Constraint Structure                       R   N=          48
  7.31741454E-01  6.01320444E-04  6.80660834E-02 -1.37246482E+00 -1.05461367E-01
 -1.68393303E+00 -3.72807646E+00  2.00795299E-01 -2.90441420E-01 -4.42155311E+00
 -1.49329124E+00 -4.75443719E-01  7.73901343E-01  2.56300759E+00  1.41498161E+00
 -9.25805259E-01  2.80779144E+00  2.56343243E+00  2.42813737E+00  2.70668152E+00
  2.65276357E+00  8.52958095E-01  4.09932848E+00  3.12202032E-02  5.87491014E-01
 -2.20068017E+00  1.94564884E+00  2.24465044E+00 -2.21219056E+00  3.18632585E+00
 -1.09804075E+00 -2.03894979E+00  3.13182804E+00  5.22699795E-01 -4.00993421E+00
  9.39010622E-01  2.99317671E+00 -2.87895697E-01 -1.72034616E+00  3.00868197E+00
  1.23343211E+00 -3.12136455E+00  4.75873461E+00 -2.07348078E-01 -6.43995952E-01
  2.91600400E+00 -2.09838939E+00 -2.71888312E+00
Num ILSW                                   I              100
ILSW                                       I   N=         100
           0           0           0           0           2           0
           0           0           0           0        4336          -1
           0           0           0           0           0           0
           0           0           0           0           0           0
           1           0           0           0           0           0
           0           0      100000           0          -1           0
           0           0           0           0           0           0
           0           0           0           1           0           0
           0           0           1           0           0           0
           0           0           4          41           0           0
           0           0          55           0           0           0
           0           0           0          16           0           0
           0           0           0           0           0           0
           0           0           0           0           0           0
           0           0           0           0           0           0
           0           0           0           0           0           0
           0           0           0           0
Num RLSW                                   I               41
RLSW                                       R   N=          41
  1.00000000E+00  1.00000000E+00  1.00000000E+00  1.00000000E+00  5.40000000E-01
  0.00000000E+00  0.00000000E+00  1.00000000E+00  0.00000000E+00  0.00000000E+00
  0.00000000E+00  0.00000000E+00  1.00000000E+00  0.00000000E+00  0.00000000E+00
  0.00000000E+00  0.00000000E+00  1.00000000E+00  0.00000000E+00  0.00000000E+00
  0.00000000E+00  0.00000000E+00  1.00000000E+00  0.00000000E+00  0.00000000E+00
  0.00000000E+00  0.00000000E+00  1.00000000E+00  0.00000000E+00  0.00000000E+00
  0.00000000E+00  0.00000000E+00  1.00000000E+00  0.00000000E+00  0.00000000E+00
  0.00000000E+00  0.00000000E+00  0.00000000E+00  1.00000000E+00  1.00000000E+00
  0.00000000E+00
ECP-MxAtEC                                 I           250000
ECP-MaxLECP                                I               10
ECP-MaxAtL                                 I          2250000
ECP-MxTECP                                 I         11250000
ECP-LenNCZ                                 I                0
ECP-KFirst                                 I   N=         160
           0           0           0           0           0           0
           0           0           0           0           0           0
           0           0           0           0           0           0
           0           0           0           0           0           0
           0           0           0           0           0           0
           0           0           0           0           0           0
           0           0           0           0           0           0
           0           0           0           0           0           0
           0           0           0           0           0           0
           0           0           0           0           0           0
           0           0           0           0           0           0
           0           0           0           0           0           0
           0           0           0           0           0           0
           0           0           0           0           0           0
           0           0           0           0           0           0
           0           0           0           0           0           0
           0           0           0           0           0           0
           0           0           0           0           0           0
           0           0           0           0           0           0
           0           0           0           0           0           0
           0           0           0           0           0           0
           0           0           0           0           0           0
           0           0           0           0           0           0
           0           0           0           0           0           0
           0           0           0           0           0           0
           0           0           0           0           0           0
           0           0           0           0
ECP-KLast                                  I   N=         160
           0           0           0           0           0           0
           0           0           0           0           0           0
           0           0           0           0           0           0
           0           0           0           0           0           0
           0           0           0           0           0           0
           0           0           0           0           0           0
           0           0           0           0           0           0
           0           0           0           0           0           0
           0           0           0           0           0           0
           0           0           0           0           0           0
           0           0           0           0           0           0
           0           0           0           0           0           0
           0           0           0           0           0           0
           0           0           0           0           0           0
           0           0           0           0           0           0
           0           0           0           0           0           0
           0           0           0           0           0           0
           0           0           0           0           0           0
           0           0           0           0           0           0
           0           0           0           0           0           0
           0           0           0           0           0           0
           0           0           0           0           0           0
           0           0           0           0           0           0
           0           0           0           0           0           0
           0           0           0           0           0           0
           0           0           0           0           0           0
           0           0           0           0
ECP-LMax                                   I   N=          16
           0           0           0           0           0           0
           0           0           0           0           0           0
           0           0           0           0
ECP-LPSkip                                 I   N=          16
           1           1           1           1           1           1
           1           1           1           1           1           1
           1           1           1           1
ECP-RNFroz                                 R   N=          16
  0.00000000E+00  0.00000000E+00  0.00000000E+00  0.00000000E+00  0.00000000E+00
  0.00000000E+00  0.00000000E+00  0.00000000E+00  0.00000000E+00  0.00000000E+00
  0.00000000E+00  0.00000000E+00  0.00000000E+00  0.00000000E+00  0.00000000E+00
  0.00000000E+00
ECP-NLP                                    I                0
ECP-CLP1                                   R      0.000000000000000E+00
ECP-CLP2                                   R      0.000000000000000E+00
ECP-ZLP                                    R      0.000000000000000E+00
MxBond                                     I                4