 Entering Gaussian System, Link 0=g09
 Initial command:
 /usr/caen/gaussian-09revc/g09/l1.exe /scratch/avioli_flux/hetanjin/scratch/Gau-15566.inp -scrdir=/scratch/avioli_flux/hetanjin/scratch/
 Entering Link 1 = /usr/caen/gaussian-09revc/g09/l1.exe PID=     15567.
  
 Copyright (c) 1988,1990,1992,1993,1995,1998,2003,2009,2011,
            Gaussian, Inc.  All Rights Reserved.
  
 This is part of the Gaussian(R) 09 program.  It is based on
 the Gaussian(R) 03 system (copyright 2003, Gaussian, Inc.),
 the Gaussian(R) 98 system (copyright 1998, Gaussian, Inc.),
 the Gaussian(R) 94 system (copyright 1995, Gaussian, Inc.),
 the Gaussian 92(TM) system (copyright 1992, Gaussian, Inc.),
 the Gaussian 90(TM) system (copyright 1990, Gaussian, Inc.),
 the Gaussian 88(TM) system (copyright 1988, Gaussian, Inc.),
 the Gaussian 86(TM) system (copyright 1986, Carnegie Mellon
 University), and the Gaussian 82(TM) system (copyright 1983,
 Carnegie Mellon University). Gaussian is a federally registered
 trademark of Gaussian, Inc.
  
 This software contains proprietary and confidential information,
 including trade secrets, belonging to Gaussian, Inc.
  
 This software is provided under written license and may be
 used, copied, transmitted, or stored only in accord with that
 written license.
  
 The following legend is applicable only to US Government
 contracts under FAR:
  
                    RESTRICTED RIGHTS LEGEND
  
 Use, reproduction and disclosure by the US Government is
 subject to restrictions as set forth in subparagraphs (a)
 and (c) of the Commercial Computer Software - Restricted
 Rights clause in FAR 52.227-19.
  
 Gaussian, Inc.
 340 Quinnipiac St., Bldg. 40, Wallingford CT 06492
  
  
 ---------------------------------------------------------------
 Warning -- This program may not be used in any manner that
 competes with the business of Gaussian, Inc. or will provide
 assistance to any competitor of Gaussian, Inc.  The licensee
 of this program is prohibited from giving any competitor of
 Gaussian, Inc. access to this program.  By using this program,
 the user acknowledges that Gaussian, Inc. is engaged in the
 business of creating and licensing software in the field of
 computational chemistry and represents and warrants to the
 licensee that it is not a competitor of Gaussian, Inc. and that
 it will not use this program in any manner prohibited above.
 ---------------------------------------------------------------
  

 Cite this work as:
 Gaussian 09, Revision C.01,
 M. J. Frisch, G. W. Trucks, H. B. Schlegel, G. E. Scuseria, 
 M. A. Robb, J. R. Cheeseman, G. Scalmani, V. Barone, B. Mennucci, 
 G. A. Petersson, H. Nakatsuji, M. Caricato, X. Li, H. P. Hratchian, 
 A. F. Izmaylov, J. Bloino, G. Zheng, J. L. Sonnenberg, M. Hada, 
 M. Ehara, K. Toyota, R. Fukuda, J. Hasegawa, M. Ishida, T. Nakajima, 
 Y. Honda, O. Kitao, H. Nakai, T. Vreven, J. A. Montgomery, Jr., 
 J. E. Peralta, F. Ogliaro, M. Bearpark, J. J. Heyd, E. Brothers, 
 K. N. Kudin, V. N. Staroverov, T. Keith, R. Kobayashi, J. Normand, 
 K. Raghavachari, A. Rendell, J. C. Burant, S. S. Iyengar, J. Tomasi, 
 M. Cossi, N. Rega, J. M. Millam, M. Klene, J. E. Knox, J. B. Cross, 
 V. Bakken, C. Adamo, J. Jaramillo, R. Gomperts, R. E. Stratmann, 
 O. Yazyev, A. J. Austin, R. Cammi, C. Pomelli, J. W. Ochterski, 
 R. L. Martin, K. Morokuma, V. G. Zakrzewski, G. A. Voth, 
 P. Salvador, J. J. Dannenberg, S. Dapprich, A. D. Daniels, 
 O. Farkas, J. B. Foresman, J. V. Ortiz, J. Cioslowski, 
 and D. J. Fox, Gaussian, Inc., Wallingford CT, 2010.
 
 ******************************************
 Gaussian 09:  EM64L-G09RevC.01 23-Sep-2011
                 6-Feb-2014 
 ******************************************
 %mem=30GB
 %nprocshared=8
 Will use up to    8 processors via shared memory.
 %chk=C9H18OOH_1_26_c.chk
 --------------------------------------------------
 #p stable=(opt,xqc) ub3lyp/6-311++g(d,p) guess=mix
 --------------------------------------------------
 1/38=1/1;
 2/12=2,17=6,18=5,40=1/2;
 3/5=4,6=6,7=1111,11=2,16=1,25=1,30=1,74=-5,116=2/1,2,3;
 4/13=-1/1;
 5/5=2,38=5/2;
 6/7=2,8=2,9=2,10=2,28=1/1;
 8/6=1,10=90,11=11/1;
 9/8=-3,42=1,46=1/14;
 5/5=2,8=3,13=1,17=40,38=5/2,8(-2);
 6/7=2,8=2,9=2,10=2,28=1/1;
 99/5=1,9=1/99;
 Leave Link    1 at Thu Feb  6 20:34:12 2014, MaxMem= 4026531840 cpu:       2.6
 (Enter /usr/caen/gaussian-09revc/g09/l101.exe)
 -----------------------------------------------------------------
 C9H18OOH_1_26_c using B3LYP/6-311++g(d,p) to do opt and cal. freq
 -----------------------------------------------------------------
 Charge =  0 Multiplicity = 2
 Symbolic Z-Matrix:
 C                    -3.17301  -1.66954  -0.19397 
 H                    -2.87617  -2.71161  -0.33638 
 H                    -3.39945  -1.24766  -1.17651 
 H                    -4.09526  -1.66148   0.39469 
 C                    -2.05413  -0.87986   0.50238 
 C                    -0.73961  -0.93993  -0.29882 
 H                    -0.55589  -1.99184  -0.54858 
 H                    -0.8744   -0.42299  -1.25598 
 C                     0.49652  -0.37953   0.41648 
 H                     0.59872  -0.86202   1.39833 
 H                     0.35867   0.68881   0.60351 
 C                     1.78599  -0.59801  -0.38576 
 H                     1.69941  -0.08941  -1.35556 
 H                     1.88007  -1.66787  -0.61185 
 C                     3.08034  -0.13145   0.30742 
 H                     3.12047  -0.61431   1.29398 
 C                     4.31064  -0.59099  -0.48791 
 H                     4.31678  -0.14434  -1.48839 
 H                     5.23878  -0.29712   0.0113 
 H                     4.3251   -1.67831  -0.60927 
 C                    -2.50965   0.54486   0.83292 
 H                    -3.43268   0.53048   1.41751 
 H                    -1.74913   1.12829   1.35099 
 C                     3.11823   1.38842   0.52354 
 H                     4.04969   1.68942   1.01217 
 H                     3.05973   1.91767  -0.43412 
 H                     2.29233   1.73843   1.1474 
 O                    -2.87034   1.29134  -0.37199 
 O                    -1.8763    2.03076  -0.82758 
 H                    -2.2286    2.82553  -1.2348 
 
 NAtoms=     30 NQM=        0 NQMF=       0 NMMI=     30 NMMIF=      0
                NMic=       0 NMicF=      0.
                    Isotopes and Nuclear Properties:
 (Nuclear quadrupole moments (NQMom) in fm**2, nuclear magnetic moments (NMagM)
  in nuclear magnetons)

  Atom         1           2           3           4           5           6           7           8           9          10
 IAtWgt=          12           1           1           1          12          12           1           1          12           1
 AtmWgt=  12.0000000   1.0078250   1.0078250   1.0078250  12.0000000  12.0000000   1.0078250   1.0078250  12.0000000   1.0078250
 NucSpn=           0           1           1           1           0           0           1           1           0           1
 AtZEff=   0.0000000   0.0000000   0.0000000   0.0000000   0.0000000   0.0000000   0.0000000   0.0000000   0.0000000   0.0000000
 NQMom=    0.0000000   0.0000000   0.0000000   0.0000000   0.0000000   0.0000000   0.0000000   0.0000000   0.0000000   0.0000000
 NMagM=    0.0000000   2.7928460   2.7928460   2.7928460   0.0000000   0.0000000   2.7928460   2.7928460   0.0000000   2.7928460

  Atom        11          12          13          14          15          16          17          18          19          20
 IAtWgt=           1          12           1           1          12           1          12           1           1           1
 AtmWgt=   1.0078250  12.0000000   1.0078250   1.0078250  12.0000000   1.0078250  12.0000000   1.0078250   1.0078250   1.0078250
 NucSpn=           1           0           1           1           0           1           0           1           1           1
 AtZEff=   0.0000000   0.0000000   0.0000000   0.0000000   0.0000000   0.0000000   0.0000000   0.0000000   0.0000000   0.0000000
 NQMom=    0.0000000   0.0000000   0.0000000   0.0000000   0.0000000   0.0000000   0.0000000   0.0000000   0.0000000   0.0000000
 NMagM=    2.7928460   0.0000000   2.7928460   2.7928460   0.0000000   2.7928460   0.0000000   2.7928460   2.7928460   2.7928460

  Atom        21          22          23          24          25          26          27          28          29          30
 IAtWgt=          12           1           1          12           1           1           1          16          16           1
 AtmWgt=  12.0000000   1.0078250   1.0078250  12.0000000   1.0078250   1.0078250   1.0078250  15.9949146  15.9949146   1.0078250
 NucSpn=           0           1           1           0           1           1           1           0           0           1
 AtZEff=   0.0000000   0.0000000   0.0000000   0.0000000   0.0000000   0.0000000   0.0000000   0.0000000   0.0000000   0.0000000
 NQMom=    0.0000000   0.0000000   0.0000000   0.0000000   0.0000000   0.0000000   0.0000000   0.0000000   0.0000000   0.0000000
 NMagM=    0.0000000   2.7928460   2.7928460   0.0000000   2.7928460   2.7928460   2.7928460   0.0000000   0.0000000   2.7928460
 Leave Link  101 at Thu Feb  6 20:34:13 2014, MaxMem= 4026531840 cpu:       0.6
 (Enter /usr/caen/gaussian-09revc/g09/l202.exe)
                          Input orientation:                          
 ---------------------------------------------------------------------
 Center     Atomic      Atomic             Coordinates (Angstroms)
 Number     Number       Type             X           Y           Z
 ---------------------------------------------------------------------
      1          6           0       -3.173014   -1.669538   -0.193965
      2          1           0       -2.876169   -2.711612   -0.336378
      3          1           0       -3.399449   -1.247661   -1.176513
      4          1           0       -4.095257   -1.661481    0.394692
      5          6           0       -2.054134   -0.879861    0.502380
      6          6           0       -0.739611   -0.939929   -0.298821
      7          1           0       -0.555894   -1.991835   -0.548576
      8          1           0       -0.874402   -0.422986   -1.255980
      9          6           0        0.496519   -0.379528    0.416475
     10          1           0        0.598724   -0.862021    1.398330
     11          1           0        0.358666    0.688807    0.603514
     12          6           0        1.785988   -0.598005   -0.385763
     13          1           0        1.699407   -0.089406   -1.355555
     14          1           0        1.880069   -1.667866   -0.611848
     15          6           0        3.080336   -0.131454    0.307420
     16          1           0        3.120467   -0.614312    1.293978
     17          6           0        4.310638   -0.590989   -0.487909
     18          1           0        4.316782   -0.144337   -1.488392
     19          1           0        5.238775   -0.297116    0.011302
     20          1           0        4.325105   -1.678305   -0.609266
     21          6           0       -2.509649    0.544864    0.832923
     22          1           0       -3.432676    0.530476    1.417505
     23          1           0       -1.749127    1.128289    1.350988
     24          6           0        3.118227    1.388421    0.523541
     25          1           0        4.049695    1.689416    1.012167
     26          1           0        3.059733    1.917672   -0.434118
     27          1           0        2.292328    1.738431    1.147402
     28          8           0       -2.870339    1.291342   -0.371991
     29          8           0       -1.876303    2.030758   -0.827575
     30          1           0       -2.228595    2.825530   -1.234795
 ---------------------------------------------------------------------
                    Distance matrix (angstroms):
                    1          2          3          4          5
     1  C    0.000000
     2  H    1.092848   0.000000
     3  H    1.093002   1.767145   0.000000
     4  H    1.094127   1.767318   1.767507   0.000000
     5  C    1.536352   2.175906   2.182620   2.188312   0.000000
     6  C    2.542592   2.775815   2.817762   3.501708   1.540617
     7  H    2.660628   2.438603   3.005645   3.677768   2.141429
     8  H    2.822301   3.176562   2.657492   3.825244   2.166179
     9  C    3.937288   4.168984   4.297654   4.767419   2.600681
    10  H    4.172948   4.301753   4.771155   4.866198   2.800125
    11  H    4.320941   4.786481   4.587138   5.040326   2.879679
    12  C    5.077073   5.119129   5.285461   6.027365   3.951554
    13  H    5.252294   5.371274   5.231820   6.254032   4.262137
    14  H    5.070333   4.877201   5.326230   6.059512   4.164182
    15  C    6.459216   6.523162   6.740593   7.337420   5.192389
    16  H    6.552509   6.558687   7.000983   7.346560   5.241530
    17  C    7.566685   7.494678   7.768580   8.519625   6.447825
    18  H    7.752343   7.723767   7.800950   8.752721   6.715113
    19  H    8.525484   8.473664   8.771166   9.441008   7.332617
    20  H    7.509617   7.280147   7.757316   8.480018   6.524413
    21  C    2.529452   3.479402   2.835969   2.752119   1.531860
    22  H    2.739402   3.727860   3.145124   2.507954   2.174139
    23  H    3.498881   4.343071   3.841479   3.768507   2.201325
    24  C    7.031759   7.313174   7.233202   7.832806   5.647908
    25  H    8.056355   8.315961   8.300993   8.828931   6.642123
    26  H    7.195338   7.528264   7.231287   8.043081   5.903800
    27  H    6.579018   6.979817   6.834739   7.275109   5.115001
    28  O    2.981630   4.003117   2.715465   3.287460   2.478878
    29  O    3.971790   4.871456   3.631771   4.477759   3.205013
    30  H    4.709660   5.646809   4.238535   5.125712   4.096113
                    6          7          8          9         10
     6  C    0.000000
     7  H    1.096647   0.000000
     8  H    1.096153   1.750187   0.000000
     9  C    1.534182   2.153702   2.162965   0.000000
    10  H    2.162760   2.529835   3.067281   1.098765   0.000000
    11  H    2.161759   3.057707   2.492841   1.093310   1.759099
    12  C    2.550122   2.730143   2.804565   1.534291   2.159233
    13  H    2.790857   3.058894   2.597245   2.161296   3.064689
    14  H    2.736896   2.458226   3.090589   2.152086   2.516356
    15  C    3.951349   4.173238   4.262530   2.597988   2.807528
    16  H    4.188465   4.336843   4.743192   2.776732   2.536028
    17  C    5.065820   5.064502   5.244311   3.925574   4.172489
    18  H    5.255012   5.295231   5.203850   4.275306   4.761532
    19  H    6.020837   6.063310   6.244420   4.760247   4.875760
    20  H    5.127663   4.891435   5.387851   4.170976   4.310763
    21  C    2.572642   3.487197   2.823877   3.172535   3.458467
    22  H    3.515745   4.301558   3.821175   4.155568   4.265161
    23  H    2.831699   3.842827   3.157195   2.861774   3.078308
    24  C    4.580437   5.106342   4.731699   3.163931   3.489648
    25  H    5.618683   6.099096   5.818373   4.154568   4.309078
    26  H    4.755965   5.326359   4.650974   3.545519   4.140184
    27  H    4.296257   4.990350   4.525058   2.871399   3.113456
    28  O    3.086086   4.020832   2.775630   3.840471   4.450327
    29  O    3.224381   4.242945   2.684809   3.603807   4.410055
    30  H    4.155936   5.145467   3.519538   4.519440   5.340891
                   11         12         13         14         15
    11  H    0.000000
    12  C    2.161435   0.000000
    13  H    2.498230   1.098483   0.000000
    14  H    3.057070   1.097528   1.754216   0.000000
    15  C    2.857969   1.540620   2.161994   2.155518   0.000000
    16  H    3.130879   2.145374   3.052042   2.506140   1.099117
    17  C    4.295016   2.526725   2.796949   2.661332   1.535371
    18  H    4.553777   2.797592   2.621319   3.004503   2.180345
    19  H    5.013803   3.488543   3.799811   3.680785   2.184946
    20  H    4.775635   2.768414   3.158455   2.445060   2.186895
    21  C    2.881073   4.609104   4.786218   5.123784   5.655218
    22  H    3.880969   5.635574   5.866208   6.097232   6.640012
    23  H    2.279178   4.300399   4.549785   4.984202   5.098990
    24  C    2.847987   2.558824   2.779932   3.487554   1.535631
    25  H    3.846025   3.508685   3.780763   4.314631   2.179884
    26  H    3.143653   2.820176   2.593819   3.778793   2.179271
    27  H    2.266401   2.840054   3.155525   3.855876   2.196132
    28  O    3.426533   5.025058   4.874058   5.601859   6.156012
    29  O    2.973876   4.529677   4.190413   5.276049   5.525545
    30  H    3.826080   5.343999   4.892917   6.120441   6.269524
                   16         17         18         19         20
    16  H    0.000000
    17  C    2.142935   0.000000
    18  H    3.064903   1.095674   0.000000
    19  H    2.496618   1.094080   1.767058   0.000000
    20  H    2.491098   1.094163   1.768047   1.768497   0.000000
    21  C    5.766669   7.039252   7.243180   7.837223   7.330501
    22  H    6.653532   8.052776   8.303837   8.823626   8.316831
    23  H    5.172316   6.561876   6.817397   7.256536   6.972507
    24  C    2.145814   2.522487   2.798885   2.756837   3.484912
    25  H    2.500009   2.742000   3.112359   2.522291   3.747858
    26  H    3.066096   2.803754   2.635061   3.138775   3.816136
    27  H    2.498539   3.489128   3.819770   3.757090   4.346510
    28  O    6.503593   7.424489   7.413652   8.272112   7.787780
    29  O    6.038634   6.728089   6.597123   7.533064   7.229265
    30  H    6.843952   7.415660   7.192106   8.189340   7.976641
                   21         22         23         24         25
    21  C    0.000000
    22  H    1.092667   0.000000
    23  H    1.089573   1.787776   0.000000
    24  C    5.699149   6.667051   4.944034   0.000000
    25  H    6.660865   7.582435   5.835752   1.094069   0.000000
    26  H    5.874352   6.892329   5.189881   1.095737   1.767446
    27  H    4.958072   5.857284   4.092320   1.092620   1.763244
    28  O    1.462581   2.024212   2.062125   6.055933   7.068326
    29  O    2.316519   3.116653   2.361517   5.213775   6.214388
    30  H    3.091260   3.708339   3.129983   5.809091   6.764357
                   26         27         28         29         30
    26  H    0.000000
    27  H    1.766987   0.000000
    28  O    5.963380   5.400146   0.000000
    29  O    4.952984   4.622064   1.320000   0.000000
    30  H    5.425099   5.224499   1.873499   0.960000   0.000000
 Stoichiometry    C9H19O2(2)
 Framework group  C1[X(C9H19O2)]
 Deg. of freedom    84
 Full point group                 C1      NOp   1
 Largest Abelian subgroup         C1      NOp   1
 Largest concise Abelian subgroup C1      NOp   1
                         Standard orientation:                         
 ---------------------------------------------------------------------
 Center     Atomic      Atomic             Coordinates (Angstroms)
 Number     Number       Type             X           Y           Z
 ---------------------------------------------------------------------
      1          6           0       -3.140021   -1.769396   -0.158332
      2          1           0       -2.826386   -2.804078   -0.317653
      3          1           0       -3.382843   -1.338314   -1.132939
      4          1           0       -4.056787   -1.785490    0.438657
      5          6           0       -2.028690   -0.969687    0.538651
      6          6           0       -0.720778   -0.995832   -0.275096
      7          1           0       -0.521069   -2.040878   -0.540861
      8          1           0       -0.873396   -0.468441   -1.223842
      9          6           0        0.511952   -0.423540    0.436644
     10          1           0        0.631618   -0.917395    1.410847
     11          1           0        0.357232    0.639584    0.639513
     12          6           0        1.797566   -0.608481   -0.380082
     13          1           0        1.693177   -0.088415   -1.342007
     14          1           0        1.908188   -1.673371   -0.621619
     15          6           0        3.089934   -0.128695    0.307740
     16          1           0        3.147589   -0.624068    1.287199
     17          6           0        4.320659   -0.555767   -0.504842
     18          1           0        4.309773   -0.095590   -1.499136
     19          1           0        5.248105   -0.252422   -0.010032
     20          1           0        4.352954   -1.640921   -0.641187
     21          6           0       -2.505896    0.442223    0.892739
     22          1           0       -3.423092    0.403732    1.485354
     23          1           0       -1.750905    1.031851    1.411870
     24          6           0        3.103323    1.388550    0.544282
     25          1           0        4.033877    1.699217    1.028576
     26          1           0        3.026767    1.929592   -0.405482
     27          1           0        2.277247    1.715542    1.180282
     28          8           0       -2.890659    1.198477   -0.298555
     29          8           0       -1.913915    1.961321   -0.752911
     30          1           0       -2.283753    2.755219   -1.146033
 ---------------------------------------------------------------------
 Rotational constants (GHZ):      1.7973594      0.4339139      0.3793749
 Leave Link  202 at Thu Feb  6 20:34:13 2014, MaxMem= 4026531840 cpu:       0.4
 (Enter /usr/caen/gaussian-09revc/g09/l301.exe)
 Standard basis: 6-311++G(d,p) (5D, 7F)
 Ernie: Thresh=  0.10000D-02 Tol=  0.10000D-05 Strict=F.
 There are   375 symmetry adapted basis functions of A   symmetry.
 Integral buffers will be    131072 words long.
 Raffenetti 2 integral format.
 Two-electron integral symmetry is turned on.
   375 basis functions,   567 primitive gaussians,   386 cartesian basis functions
    45 alpha electrons       44 beta electrons
       nuclear repulsion energy       647.9191612292 Hartrees.
 IExCor=  402 DFT=T Ex+Corr=B3LYP ExCW=0 ScaHFX=  0.200000
 ScaDFX=  0.800000  0.720000  1.000000  0.810000 ScalE2=  1.000000  1.000000
 IRadAn=      0 IRanWt=     -1 IRanGd=            0 ICorTp=0
 NAtoms=   30 NActive=   30 NUniq=   30 SFac= 1.00D+00 NAtFMM=   60 NAOKFM=F Big=F
 Leave Link  301 at Thu Feb  6 20:34:13 2014, MaxMem= 4026531840 cpu:       0.6
 (Enter /usr/caen/gaussian-09revc/g09/l302.exe)
 NPDir=0 NMtPBC=     1 NCelOv=     1 NCel=       1 NClECP=     1 NCelD=      1
         NCelK=      1 NCelE2=     1 NClLst=     1 CellRange=     0.0.
 One-electron integrals computed using PRISM.
 NBasis=   375 RedAO= T  NBF=   375
 NBsUse=   375 1.00D-06 NBFU=   375
 Precomputing XC quadrature grid using
 IXCGrd= 2 IRadAn=           0 IRanWt=          -1 IRanGd=           0 AccXCQ= 0.00D+00.
 NRdTot=    1960 NPtTot=      250122 NUsed=      264245 NTot=      264277
 NSgBfM=   386   386   386   386   386 NAtAll=    30    30.
 Leave Link  302 at Thu Feb  6 20:34:14 2014, MaxMem= 4026531840 cpu:       4.1
 (Enter /usr/caen/gaussian-09revc/g09/l303.exe)
 DipDrv:  MaxL=1.
 Leave Link  303 at Thu Feb  6 20:34:14 2014, MaxMem= 4026531840 cpu:       0.4
 (Enter /usr/caen/gaussian-09revc/g09/l401.exe)
 Harris functional with IExCor=  402 diagonalized for initial guess.
 ExpMin= 3.60D-02 ExpMax= 8.59D+03 ExpMxC= 1.30D+03 IAcc=3 IRadAn=         5 AccDes= 0.00D+00
 HarFok:  IExCor=  402 AccDes= 0.00D+00 IRadAn=         5 IDoV= 1
 ScaDFX=  1.000000  1.000000  1.000000  1.000000
 FoFCou: FMM=F IPFlag=           0 FMFlag=      100000 FMFlg1=           0
         NFxFlg=           0 DoJE=T BraDBF=F KetDBF=T FulRan=T
         Omega=  0.000000  0.000000  1.000000  0.000000  0.000000 ICntrl=     500 IOpCl=  0
         NMat0=    1 NMatS0=    1 NMatT0=    0 NMatD0=    1 NMtDS0=    0 NMtDT0=    0
         I1Cent=           4 NGrid=           0.
 Petite list used in FoFCou.
 Harris En= -504.886626263220    
 Mixing orbitals, IMix= 1 IMixAn=  0 NRI=1 NE=   45 Coef=  7.07106781D-01  7.07106781D-01
 Mixing orbitals, IMix= 1 IMixAn=  0 NRI=1 NE=   44 Coef= -7.07106781D-01  7.07106781D-01
 Initial guess orbital symmetries:
 Alpha Orbitals:
       Occupied  (A) (A) (A) (A) (A) (A) (A) (A) (A) (A) (A) (A)
                 (A) (A) (A) (A) (A) (A) (A) (A) (A) (A) (A) (A)
                 (A) (A) (A) (A) (A) (A) (A) (A) (A) (A) (A) (A)
                 (A) (A) (A) (A) (A) (A) (A) (A) (A)
       Virtual   (A) (A) (A) (A) (A) (A) (A) (A) (A) (A) (A) (A)
                 (A) (A) (A) (A) (A) (A) (A) (A) (A) (A) (A) (A)
                 (A) (A) (A) (A) (A) (A) (A) (A) (A) (A) (A) (A)
                 (A) (A) (A) (A) (A) (A) (A) (A) (A) (A) (A) (A)
                 (A) (A) (A) (A) (A) (A) (A) (A) (A) (A) (A) (A)
                 (A) (A) (A) (A) (A) (A) (A) (A) (A) (A) (A) (A)
                 (A) (A) (A) (A) (A) (A) (A) (A) (A) (A) (A) (A)
                 (A) (A) (A) (A) (A) (A) (A) (A) (A) (A) (A) (A)
                 (A) (A) (A) (A) (A) (A) (A) (A) (A) (A) (A) (A)
                 (A) (A) (A) (A) (A) (A) (A) (A) (A) (A) (A) (A)
                 (A) (A) (A) (A) (A) (A) (A) (A) (A) (A) (A) (A)
                 (A) (A) (A) (A) (A) (A) (A) (A) (A) (A) (A) (A)
                 (A) (A) (A) (A) (A) (A) (A) (A) (A) (A) (A) (A)
                 (A) (A) (A) (A) (A) (A) (A) (A) (A) (A) (A) (A)
                 (A) (A) (A) (A) (A) (A) (A) (A) (A) (A) (A) (A)
                 (A) (A) (A) (A) (A) (A) (A) (A) (A) (A) (A) (A)
                 (A) (A) (A) (A) (A) (A) (A) (A) (A) (A) (A) (A)
                 (A) (A) (A) (A) (A) (A) (A) (A) (A) (A) (A) (A)
                 (A) (A) (A) (A) (A) (A) (A) (A) (A) (A) (A) (A)
                 (A) (A) (A) (A) (A) (A) (A) (A) (A) (A) (A) (A)
                 (A) (A) (A) (A) (A) (A) (A) (A) (A) (A) (A) (A)
                 (A) (A) (A) (A) (A) (A) (A) (A) (A) (A) (A) (A)
                 (A) (A) (A) (A) (A) (A) (A) (A) (A) (A) (A) (A)
                 (A) (A) (A) (A) (A) (A) (A) (A) (A) (A) (A) (A)
                 (A) (A) (A) (A) (A) (A) (A) (A) (A) (A) (A) (A)
                 (A) (A) (A) (A) (A) (A) (A) (A) (A) (A) (A) (A)
                 (A) (A) (A) (A) (A) (A) (A) (A) (A) (A) (A) (A)
                 (A) (A) (A) (A) (A) (A)
 Beta  Orbitals:
       Occupied  (A) (A) (A) (A) (A) (A) (A) (A) (A) (A) (A) (A)
                 (A) (A) (A) (A) (A) (A) (A) (A) (A) (A) (A) (A)
                 (A) (A) (A) (A) (A) (A) (A) (A) (A) (A) (A) (A)
                 (A) (A) (A) (A) (A) (A) (A) (A)
       Virtual   (A) (A) (A) (A) (A) (A) (A) (A) (A) (A) (A) (A)
                 (A) (A) (A) (A) (A) (A) (A) (A) (A) (A) (A) (A)
                 (A) (A) (A) (A) (A) (A) (A) (A) (A) (A) (A) (A)
                 (A) (A) (A) (A) (A) (A) (A) (A) (A) (A) (A) (A)
                 (A) (A) (A) (A) (A) (A) (A) (A) (A) (A) (A) (A)
                 (A) (A) (A) (A) (A) (A) (A) (A) (A) (A) (A) (A)
                 (A) (A) (A) (A) (A) (A) (A) (A) (A) (A) (A) (A)
                 (A) (A) (A) (A) (A) (A) (A) (A) (A) (A) (A) (A)
                 (A) (A) (A) (A) (A) (A) (A) (A) (A) (A) (A) (A)
                 (A) (A) (A) (A) (A) (A) (A) (A) (A) (A) (A) (A)
                 (A) (A) (A) (A) (A) (A) (A) (A) (A) (A) (A) (A)
                 (A) (A) (A) (A) (A) (A) (A) (A) (A) (A) (A) (A)
                 (A) (A) (A) (A) (A) (A) (A) (A) (A) (A) (A) (A)
                 (A) (A) (A) (A) (A) (A) (A) (A) (A) (A) (A) (A)
                 (A) (A) (A) (A) (A) (A) (A) (A) (A) (A) (A) (A)
                 (A) (A) (A) (A) (A) (A) (A) (A) (A) (A) (A) (A)
                 (A) (A) (A) (A) (A) (A) (A) (A) (A) (A) (A) (A)
                 (A) (A) (A) (A) (A) (A) (A) (A) (A) (A) (A) (A)
                 (A) (A) (A) (A) (A) (A) (A) (A) (A) (A) (A) (A)
                 (A) (A) (A) (A) (A) (A) (A) (A) (A) (A) (A) (A)
                 (A) (A) (A) (A) (A) (A) (A) (A) (A) (A) (A) (A)
                 (A) (A) (A) (A) (A) (A) (A) (A) (A) (A) (A) (A)
                 (A) (A) (A) (A) (A) (A) (A) (A) (A) (A) (A) (A)
                 (A) (A) (A) (A) (A) (A) (A) (A) (A) (A) (A) (A)
                 (A) (A) (A) (A) (A) (A) (A) (A) (A) (A) (A) (A)
                 (A) (A) (A) (A) (A) (A) (A) (A) (A) (A) (A) (A)
                 (A) (A) (A) (A) (A) (A) (A) (A) (A) (A) (A) (A)
                 (A) (A) (A) (A) (A) (A) (A)
 The electronic state of the initial guess is 2-A.
 Initial guess <Sx>= 0.0000 <Sy>= 0.0000 <Sz>= 0.5000 <S**2>= 1.0000 S= 0.6180
 Leave Link  401 at Thu Feb  6 20:34:18 2014, MaxMem= 4026531840 cpu:      27.3
 (Enter /usr/caen/gaussian-09revc/g09/l502.exe)
 UHF open shell SCF:
 Requested convergence on RMS density matrix=1.00D-08 within 128 cycles.
 Requested convergence on MAX density matrix=1.00D-06.
 Requested convergence on             energy=1.00D-06.
 No special actions if energy rises.
 Using DIIS extrapolation, IDIIS=  1040.
 Integral symmetry usage will be decided dynamically.
       263962 words used for storage of precomputed grid.
 IEnd=      735096 IEndB=      735096 NGot=  4026531840 MDV=  4025962767
 LenX=  4025962767 LenY=  4025813330
 Fock matrices will be formed incrementally for  20 cycles.

 Cycle   1  Pass 1  IDiag  1:
 FoFCou: FMM=F IPFlag=           0 FMFlag=      100000 FMFlg1=           0
         NFxFlg=           0 DoJE=F BraDBF=F KetDBF=F FulRan=T
         Omega=  0.000000  0.000000  1.000000  0.000000  0.000000 ICntrl=       0 IOpCl=  1
         NMat0=    1 NMatS0=    1 NMatT0=    0 NMatD0=    1 NMtDS0=    0 NMtDT0=    0
         I1Cent=           0 NGrid=           0.
 Symmetry not used in FoFCou.
 E= -504.318413487910    
 DIIS: error= 3.31D-02 at cycle   1 NSaved=   1.
 NSaved= 1 IEnMin= 1 EnMin= -504.318413487910     IErMin= 1 ErrMin= 3.31D-02
 ErrMax= 3.31D-02 EMaxC= 1.00D-01 BMatC= 1.55D+00 BMatP= 1.55D+00
 IDIUse=3 WtCom= 6.69D-01 WtEn= 3.31D-01
 Coeff-Com:  0.100D+01
 Coeff-En:   0.100D+01
 Coeff:      0.100D+01
 Gap=     0.025 Goal=   None    Shift=    0.000
 Gap=     0.094 Goal=   None    Shift=    0.000
 GapD=    0.025 DampG=0.250 DampE=0.500 DampFc=0.2500 IDamp=-1.
 Damping current iteration by 2.50D-01
 RMSDP=2.33D-02 MaxDP=3.52D+00              OVMax= 7.47D-01

 Cycle   2  Pass 1  IDiag  1:
 RMSU=  2.23D-03    CP:  8.56D-01
 E= -504.455876841496     Delta-E=       -0.137463353586 Rises=F Damp=T
 DIIS: error= 1.25D-02 at cycle   2 NSaved=   2.
 NSaved= 2 IEnMin= 2 EnMin= -504.455876841496     IErMin= 2 ErrMin= 1.25D-02
 ErrMax= 1.25D-02 EMaxC= 1.00D-01 BMatC= 3.75D-01 BMatP= 1.55D+00
 IDIUse=3 WtCom= 8.75D-01 WtEn= 1.25D-01
 Coeff-Com: -0.621D+00 0.162D+01
 Coeff-En:   0.000D+00 0.100D+01
 Coeff:     -0.543D+00 0.154D+01
 Gap=     0.338 Goal=   None    Shift=    0.000
 Gap=    -0.127 Goal=   None    Shift=    0.000
 RMSDP=1.53D-02 MaxDP=2.35D+00 DE=-1.37D-01 OVMax= 5.44D-01

 Cycle   3  Pass 1  IDiag  1:
 RMSU=  6.23D-03    CP:  5.04D-01  2.43D+00
 E= -504.754156344138     Delta-E=       -0.298279502642 Rises=F Damp=F
 DIIS: error= 9.33D-03 at cycle   3 NSaved=   3.
 NSaved= 3 IEnMin= 3 EnMin= -504.754156344138     IErMin= 3 ErrMin= 9.33D-03
 ErrMax= 9.33D-03 EMaxC= 1.00D-01 BMatC= 2.56D-01 BMatP= 3.75D-01
 IDIUse=3 WtCom= 9.07D-01 WtEn= 9.33D-02
 Coeff-Com: -0.422D+00 0.970D+00 0.452D+00
 Coeff-En:   0.000D+00 0.000D+00 0.100D+01
 Coeff:     -0.382D+00 0.879D+00 0.503D+00
 Gap=     0.183 Goal=   None    Shift=    0.000
 Gap=     0.102 Goal=   None    Shift=    0.000
 RMSDP=4.48D-03 MaxDP=6.37D-01 DE=-2.98D-01 OVMax= 1.55D-01

 Cycle   4  Pass 1  IDiag  1:
 RMSU=  2.59D-03    CP:  5.03D-01  2.85D+00  6.85D-01
 E= -504.823254264501     Delta-E=       -0.069097920363 Rises=F Damp=F
 DIIS: error= 2.42D-03 at cycle   4 NSaved=   4.
 NSaved= 4 IEnMin= 4 EnMin= -504.823254264501     IErMin= 4 ErrMin= 2.42D-03
 ErrMax= 2.42D-03 EMaxC= 1.00D-01 BMatC= 1.84D-02 BMatP= 2.56D-01
 IDIUse=3 WtCom= 9.76D-01 WtEn= 2.42D-02
 Coeff-Com: -0.178D+00 0.319D+00 0.198D+00 0.661D+00
 Coeff-En:   0.000D+00 0.000D+00 0.000D+00 0.100D+01
 Coeff:     -0.174D+00 0.311D+00 0.193D+00 0.670D+00
 Gap=     0.190 Goal=   None    Shift=    0.000
 Gap=     0.148 Goal=   None    Shift=    0.000
 RMSDP=1.40D-03 MaxDP=2.41D-01 DE=-6.91D-02 OVMax= 3.45D-02

 Cycle   5  Pass 1  IDiag  1:
 RMSU=  6.30D-04    CP:  4.75D-01  2.76D+00  6.72D-01  8.55D-01
 E= -504.828196726839     Delta-E=       -0.004942462338 Rises=F Damp=F
 DIIS: error= 1.20D-03 at cycle   5 NSaved=   5.
 NSaved= 5 IEnMin= 5 EnMin= -504.828196726839     IErMin= 5 ErrMin= 1.20D-03
 ErrMax= 1.20D-03 EMaxC= 1.00D-01 BMatC= 2.99D-03 BMatP= 1.84D-02
 IDIUse=3 WtCom= 9.88D-01 WtEn= 1.20D-02
 Coeff-Com: -0.402D-01 0.430D-01-0.171D-01 0.222D+00 0.792D+00
 Coeff-En:   0.000D+00 0.000D+00 0.000D+00 0.000D+00 0.100D+01
 Coeff:     -0.397D-01 0.425D-01-0.169D-01 0.219D+00 0.795D+00
 Gap=     0.204 Goal=   None    Shift=    0.000
 Gap=     0.151 Goal=   None    Shift=    0.000
 RMSDP=5.59D-04 MaxDP=7.82D-02 DE=-4.94D-03 OVMax= 2.06D-02

 Cycle   6  Pass 1  IDiag  1:
 RMSU=  2.35D-04    CP:  4.76D-01  2.82D+00  6.41D-01  9.49D-01  9.90D-01
 E= -504.829079181542     Delta-E=       -0.000882454703 Rises=F Damp=F
 DIIS: error= 5.55D-04 at cycle   6 NSaved=   6.
 NSaved= 6 IEnMin= 6 EnMin= -504.829079181542     IErMin= 6 ErrMin= 5.55D-04
 ErrMax= 5.55D-04 EMaxC= 1.00D-01 BMatC= 7.50D-04 BMatP= 2.99D-03
 IDIUse=3 WtCom= 9.94D-01 WtEn= 5.55D-03
 Coeff-Com:  0.138D-03-0.759D-02-0.457D-01-0.225D-01 0.429D+00 0.646D+00
 Coeff-En:   0.000D+00 0.000D+00 0.000D+00 0.000D+00 0.000D+00 0.100D+01
 Coeff:      0.137D-03-0.755D-02-0.455D-01-0.224D-01 0.427D+00 0.648D+00
 Gap=     0.205 Goal=   None    Shift=    0.000
 Gap=     0.158 Goal=   None    Shift=    0.000
 RMSDP=1.93D-04 MaxDP=2.52D-02 DE=-8.82D-04 OVMax= 5.28D-03

 Cycle   7  Pass 1  IDiag  1:
 RMSU=  1.19D-04    CP:  4.75D-01  2.82D+00  6.30D-01  9.67D-01  9.71D-01
                    CP:  8.63D-01
 E= -504.829248939912     Delta-E=       -0.000169758370 Rises=F Damp=F
 DIIS: error= 1.65D-04 at cycle   7 NSaved=   7.
 NSaved= 7 IEnMin= 7 EnMin= -504.829248939912     IErMin= 7 ErrMin= 1.65D-04
 ErrMax= 1.65D-04 EMaxC= 1.00D-01 BMatC= 6.50D-05 BMatP= 7.50D-04
 IDIUse=3 WtCom= 9.98D-01 WtEn= 1.65D-03
 Coeff-Com:  0.551D-02-0.820D-02-0.110D-01-0.355D-01 0.282D-01 0.254D+00
 Coeff-Com:  0.766D+00
 Coeff-En:   0.000D+00 0.000D+00 0.000D+00 0.000D+00 0.000D+00 0.000D+00
 Coeff-En:   0.100D+01
 Coeff:      0.550D-02-0.819D-02-0.110D-01-0.354D-01 0.282D-01 0.254D+00
 Coeff:      0.767D+00
 Gap=     0.205 Goal=   None    Shift=    0.000
 Gap=     0.158 Goal=   None    Shift=    0.000
 RMSDP=5.46D-05 MaxDP=5.56D-03 DE=-1.70D-04 OVMax= 2.66D-03

 Cycle   8  Pass 1  IDiag  1:
 RMSU=  3.18D-05    CP:  4.75D-01  2.82D+00  6.28D-01  9.70D-01  9.92D-01
                    CP:  9.07D-01  9.74D-01
 E= -504.829262500101     Delta-E=       -0.000013560189 Rises=F Damp=F
 DIIS: error= 9.49D-05 at cycle   8 NSaved=   8.
 NSaved= 8 IEnMin= 8 EnMin= -504.829262500101     IErMin= 8 ErrMin= 9.49D-05
 ErrMax= 9.49D-05 EMaxC= 1.00D-01 BMatC= 2.16D-05 BMatP= 6.50D-05
 IDIUse=1 WtCom= 1.00D+00 WtEn= 0.00D+00
 Coeff-Com:  0.228D-02-0.211D-02 0.412D-03-0.158D-01-0.308D-01 0.799D-01
 Coeff-Com:  0.440D+00 0.526D+00
 Coeff:      0.228D-02-0.211D-02 0.412D-03-0.158D-01-0.308D-01 0.799D-01
 Coeff:      0.440D+00 0.526D+00
 Gap=     0.205 Goal=   None    Shift=    0.000
 Gap=     0.158 Goal=   None    Shift=    0.000
 RMSDP=2.63D-05 MaxDP=3.61D-03 DE=-1.36D-05 OVMax= 5.19D-04

 Cycle   9  Pass 1  IDiag  1:
 RMSU=  1.27D-05    CP:  4.75D-01  2.82D+00  6.29D-01  9.70D-01  9.81D-01
                    CP:  9.21D-01  9.93D-01  9.95D-01
 E= -504.829266759960     Delta-E=       -0.000004259859 Rises=F Damp=F
 DIIS: error= 3.64D-05 at cycle   9 NSaved=   9.
 NSaved= 9 IEnMin= 9 EnMin= -504.829266759960     IErMin= 9 ErrMin= 3.64D-05
 ErrMax= 3.64D-05 EMaxC= 1.00D-01 BMatC= 1.84D-06 BMatP= 2.16D-05
 IDIUse=1 WtCom= 1.00D+00 WtEn= 0.00D+00
 Coeff-Com:  0.264D-03-0.246D-04 0.230D-02-0.273D-03-0.169D-01-0.131D-01
 Coeff-Com:  0.292D-01 0.214D+00 0.784D+00
 Coeff:      0.264D-03-0.246D-04 0.230D-02-0.273D-03-0.169D-01-0.131D-01
 Coeff:      0.292D-01 0.214D+00 0.784D+00
 Gap=     0.205 Goal=   None    Shift=    0.000
 Gap=     0.158 Goal=   None    Shift=    0.000
 RMSDP=1.10D-05 MaxDP=1.17D-03 DE=-4.26D-06 OVMax= 4.04D-04

 Cycle  10  Pass 1  IDiag  1:
 RMSU=  5.34D-06    CP:  4.75D-01  2.82D+00  6.30D-01  9.70D-01  9.78D-01
                    CP:  9.19D-01  1.03D+00  1.05D+00  1.05D+00
 E= -504.829267217897     Delta-E=       -0.000000457937 Rises=F Damp=F
 DIIS: error= 1.42D-05 at cycle  10 NSaved=  10.
 NSaved=10 IEnMin=10 EnMin= -504.829267217897     IErMin=10 ErrMin= 1.42D-05
 ErrMax= 1.42D-05 EMaxC= 1.00D-01 BMatC= 4.04D-07 BMatP= 1.84D-06
 IDIUse=1 WtCom= 1.00D+00 WtEn= 0.00D+00
 Coeff-Com: -0.217D-03 0.212D-03 0.976D-03 0.244D-02-0.264D-02-0.216D-01
 Coeff-Com: -0.639D-01 0.921D-02 0.385D+00 0.690D+00
 Coeff:     -0.217D-03 0.212D-03 0.976D-03 0.244D-02-0.264D-02-0.216D-01
 Coeff:     -0.639D-01 0.921D-02 0.385D+00 0.690D+00
 Gap=     0.205 Goal=   None    Shift=    0.000
 Gap=     0.158 Goal=   None    Shift=    0.000
 RMSDP=4.47D-06 MaxDP=5.90D-04 DE=-4.58D-07 OVMax= 1.85D-04

 Cycle  11  Pass 1  IDiag  1:
 RMSU=  2.17D-06    CP:  4.75D-01  2.82D+00  6.29D-01  9.70D-01  9.79D-01
                    CP:  9.23D-01  1.03D+00  1.10D+00  1.16D+00  8.46D-01
 E= -504.829267330305     Delta-E=       -0.000000112408 Rises=F Damp=F
 DIIS: error= 3.43D-06 at cycle  11 NSaved=  11.
 NSaved=11 IEnMin=11 EnMin= -504.829267330305     IErMin=11 ErrMin= 3.43D-06
 ErrMax= 3.43D-06 EMaxC= 1.00D-01 BMatC= 4.84D-08 BMatP= 4.04D-07
 IDIUse=1 WtCom= 1.00D+00 WtEn= 0.00D+00
 Coeff-Com: -0.134D-03 0.154D-03 0.648D-04 0.855D-03 0.118D-02-0.757D-02
 Coeff-Com: -0.266D-01-0.237D-01 0.460D-01 0.292D+00 0.718D+00
 Coeff:     -0.134D-03 0.154D-03 0.648D-04 0.855D-03 0.118D-02-0.757D-02
 Coeff:     -0.266D-01-0.237D-01 0.460D-01 0.292D+00 0.718D+00
 Gap=     0.205 Goal=   None    Shift=    0.000
 Gap=     0.158 Goal=   None    Shift=    0.000
 RMSDP=1.60D-06 MaxDP=2.42D-04 DE=-1.12D-07 OVMax= 6.54D-05

 Cycle  12  Pass 1  IDiag  1:
 RMSU=  9.18D-07    CP:  4.75D-01  2.82D+00  6.29D-01  9.69D-01  9.79D-01
                    CP:  9.22D-01  1.03D+00  1.10D+00  1.14D+00  8.45D-01
                    CP:  9.69D-01
 E= -504.829267343912     Delta-E=       -0.000000013607 Rises=F Damp=F
 DIIS: error= 1.42D-06 at cycle  12 NSaved=  12.
 NSaved=12 IEnMin=12 EnMin= -504.829267343912     IErMin=12 ErrMin= 1.42D-06
 ErrMax= 1.42D-06 EMaxC= 1.00D-01 BMatC= 4.74D-09 BMatP= 4.84D-08
 IDIUse=1 WtCom= 1.00D+00 WtEn= 0.00D+00
 Coeff-Com: -0.278D-04 0.357D-04-0.111D-03 0.559D-04 0.767D-03-0.430D-03
 Coeff-Com: -0.149D-02-0.977D-02-0.321D-01 0.202D-01 0.257D+00 0.765D+00
 Coeff:     -0.278D-04 0.357D-04-0.111D-03 0.559D-04 0.767D-03-0.430D-03
 Coeff:     -0.149D-02-0.977D-02-0.321D-01 0.202D-01 0.257D+00 0.765D+00
 Gap=     0.205 Goal=   None    Shift=    0.000
 Gap=     0.158 Goal=   None    Shift=    0.000
 RMSDP=6.23D-07 MaxDP=6.28D-05 DE=-1.36D-08 OVMax= 2.49D-05

 Cycle  13  Pass 1  IDiag  1:
 RMSU=  2.98D-07    CP:  4.75D-01  2.82D+00  6.29D-01  9.70D-01  9.79D-01
                    CP:  9.22D-01  1.03D+00  1.10D+00  1.15D+00  8.77D-01
                    CP:  1.02D+00  9.39D-01
 E= -504.829267345750     Delta-E=       -0.000000001838 Rises=F Damp=F
 DIIS: error= 5.98D-07 at cycle  13 NSaved=  13.
 NSaved=13 IEnMin=13 EnMin= -504.829267345750     IErMin=13 ErrMin= 5.98D-07
 ErrMax= 5.98D-07 EMaxC= 1.00D-01 BMatC= 3.54D-10 BMatP= 4.74D-09
 IDIUse=1 WtCom= 1.00D+00 WtEn= 0.00D+00
 Coeff-Com:  0.600D-05-0.530D-05-0.247D-04-0.659D-04-0.500D-04 0.833D-03
 Coeff-Com:  0.246D-02 0.949D-03-0.950D-02-0.304D-01-0.399D-01 0.110D+00
 Coeff-Com:  0.965D+00
 Coeff:      0.600D-05-0.530D-05-0.247D-04-0.659D-04-0.500D-04 0.833D-03
 Coeff:      0.246D-02 0.949D-03-0.950D-02-0.304D-01-0.399D-01 0.110D+00
 Coeff:      0.965D+00
 Gap=     0.205 Goal=   None    Shift=    0.000
 Gap=     0.158 Goal=   None    Shift=    0.000
 RMSDP=2.13D-07 MaxDP=1.42D-05 DE=-1.84D-09 OVMax= 1.28D-05

 Cycle  14  Pass 1  IDiag  1:
 RMSU=  9.85D-08    CP:  4.75D-01  2.82D+00  6.29D-01  9.70D-01  9.79D-01
                    CP:  9.22D-01  1.03D+00  1.10D+00  1.14D+00  8.76D-01
                    CP:  1.04D+00  1.04D+00  1.05D+00
 E= -504.829267345970     Delta-E=       -0.000000000220 Rises=F Damp=F
 DIIS: error= 2.01D-07 at cycle  14 NSaved=  14.
 NSaved=14 IEnMin=14 EnMin= -504.829267345970     IErMin=14 ErrMin= 2.01D-07
 ErrMax= 2.01D-07 EMaxC= 1.00D-01 BMatC= 5.19D-11 BMatP= 3.54D-10
 IDIUse=1 WtCom= 1.00D+00 WtEn= 0.00D+00
 Coeff-Com:  0.433D-05-0.549D-05 0.706D-05-0.225D-04-0.969D-04 0.278D-03
 Coeff-Com:  0.712D-03 0.128D-02 0.127D-02-0.949D-02-0.371D-01-0.656D-01
 Coeff-Com:  0.233D+00 0.876D+00
 Coeff:      0.433D-05-0.549D-05 0.706D-05-0.225D-04-0.969D-04 0.278D-03
 Coeff:      0.712D-03 0.128D-02 0.127D-02-0.949D-02-0.371D-01-0.656D-01
 Coeff:      0.233D+00 0.876D+00
 Gap=     0.205 Goal=   None    Shift=    0.000
 Gap=     0.158 Goal=   None    Shift=    0.000
 RMSDP=7.65D-08 MaxDP=7.58D-06 DE=-2.20D-10 OVMax= 4.57D-06

 Cycle  15  Pass 1  IDiag  1:
 RMSU=  3.13D-08    CP:  4.75D-01  2.82D+00  6.29D-01  9.70D-01  9.79D-01
                    CP:  9.22D-01  1.03D+00  1.10D+00  1.14D+00  8.76D-01
                    CP:  1.05D+00  1.05D+00  1.14D+00  9.60D-01
 E= -504.829267345998     Delta-E=       -0.000000000028 Rises=F Damp=F
 DIIS: error= 7.47D-08 at cycle  15 NSaved=  15.
 NSaved=15 IEnMin=15 EnMin= -504.829267345998     IErMin=15 ErrMin= 7.47D-08
 ErrMax= 7.47D-08 EMaxC= 1.00D-01 BMatC= 1.02D-11 BMatP= 5.19D-11
 IDIUse=1 WtCom= 1.00D+00 WtEn= 0.00D+00
 Coeff-Com:  0.113D-05-0.146D-05 0.518D-05-0.395D-05-0.250D-04 0.583D-05
 Coeff-Com:  0.223D-04 0.334D-03 0.132D-02-0.700D-05-0.825D-02-0.345D-01
 Coeff-Com: -0.365D-01 0.312D+00 0.765D+00
 Coeff:      0.113D-05-0.146D-05 0.518D-05-0.395D-05-0.250D-04 0.583D-05
 Coeff:      0.223D-04 0.334D-03 0.132D-02-0.700D-05-0.825D-02-0.345D-01
 Coeff:     -0.365D-01 0.312D+00 0.765D+00
 Gap=     0.205 Goal=   None    Shift=    0.000
 Gap=     0.158 Goal=   None    Shift=    0.000
 RMSDP=2.91D-08 MaxDP=2.19D-06 DE=-2.77D-11 OVMax= 1.35D-06

 Cycle  16  Pass 1  IDiag  1:
 RMSU=  1.02D-08    CP:  4.75D-01  2.82D+00  6.29D-01  9.70D-01  9.79D-01
                    CP:  9.22D-01  1.03D+00  1.10D+00  1.15D+00  8.77D-01
                    CP:  1.05D+00  1.05D+00  1.16D+00  1.01D+00  1.03D+00
 E= -504.829267346001     Delta-E=       -0.000000000003 Rises=F Damp=F
 DIIS: error= 2.60D-08 at cycle  16 NSaved=  16.
 NSaved=16 IEnMin=16 EnMin= -504.829267346001     IErMin=16 ErrMin= 2.60D-08
 ErrMax= 2.60D-08 EMaxC= 1.00D-01 BMatC= 1.99D-12 BMatP= 1.02D-11
 IDIUse=1 WtCom= 1.00D+00 WtEn= 0.00D+00
 Coeff-Com:  0.457D-07-0.107D-06 0.138D-05 0.120D-05 0.371D-05-0.424D-04
 Coeff-Com: -0.905D-04-0.282D-04 0.423D-03 0.147D-02 0.170D-02-0.536D-02
 Coeff-Com: -0.524D-01 0.140D-02 0.342D+00 0.711D+00
 Coeff:      0.457D-07-0.107D-06 0.138D-05 0.120D-05 0.371D-05-0.424D-04
 Coeff:     -0.905D-04-0.282D-04 0.423D-03 0.147D-02 0.170D-02-0.536D-02
 Coeff:     -0.524D-01 0.140D-02 0.342D+00 0.711D+00
 Gap=     0.205 Goal=   None    Shift=    0.000
 Gap=     0.158 Goal=   None    Shift=    0.000
 RMSDP=9.05D-09 MaxDP=7.34D-07 DE=-3.18D-12 OVMax= 5.11D-07

 SCF Done:  E(UB3LYP) =  -504.829267346     A.U. after   16 cycles
             Convg  =    0.9053D-08             -V/T =  2.0042
 <Sx>= 0.0000 <Sy>= 0.0000 <Sz>= 0.5000 <S**2>= 0.7535 S= 0.5018
 <L.S>= 0.000000000000E+00
 KE= 5.027309466021D+02 PE=-2.472192548480D+03 EE= 8.167131733024D+02
 Annihilation of the first spin contaminant:
 S**2 before annihilation     0.7535,   after     0.7500
 Leave Link  502 at Thu Feb  6 20:38:23 2014, MaxMem= 4026531840 cpu:    1956.0
 (Enter /usr/caen/gaussian-09revc/g09/l601.exe)
 Copying SCF densities to generalized density rwf, IOpCl= 1 IROHF=0.

 **********************************************************************

            Population analysis using the SCF density.

 **********************************************************************

 Orbital symmetries:
 Alpha Orbitals:
       Occupied  (A) (A) (A) (A) (A) (A) (A) (A) (A) (A) (A) (A)
                 (A) (A) (A) (A) (A) (A) (A) (A) (A) (A) (A) (A)
                 (A) (A) (A) (A) (A) (A) (A) (A) (A) (A) (A) (A)
                 (A) (A) (A) (A) (A) (A) (A) (A) (A)
       Virtual   (A) (A) (A) (A) (A) (A) (A) (A) (A) (A) (A) (A)
                 (A) (A) (A) (A) (A) (A) (A) (A) (A) (A) (A) (A)
                 (A) (A) (A) (A) (A) (A) (A) (A) (A) (A) (A) (A)
                 (A) (A) (A) (A) (A) (A) (A) (A) (A) (A) (A) (A)
                 (A) (A) (A) (A) (A) (A) (A) (A) (A) (A) (A) (A)
                 (A) (A) (A) (A) (A) (A) (A) (A) (A) (A) (A) (A)
                 (A) (A) (A) (A) (A) (A) (A) (A) (A) (A) (A) (A)
                 (A) (A) (A) (A) (A) (A) (A) (A) (A) (A) (A) (A)
                 (A) (A) (A) (A) (A) (A) (A) (A) (A) (A) (A) (A)
                 (A) (A) (A) (A) (A) (A) (A) (A) (A) (A) (A) (A)
                 (A) (A) (A) (A) (A) (A) (A) (A) (A) (A) (A) (A)
                 (A) (A) (A) (A) (A) (A) (A) (A) (A) (A) (A) (A)
                 (A) (A) (A) (A) (A) (A) (A) (A) (A) (A) (A) (A)
                 (A) (A) (A) (A) (A) (A) (A) (A) (A) (A) (A) (A)
                 (A) (A) (A) (A) (A) (A) (A) (A) (A) (A) (A) (A)
                 (A) (A) (A) (A) (A) (A) (A) (A) (A) (A) (A) (A)
                 (A) (A) (A) (A) (A) (A) (A) (A) (A) (A) (A) (A)
                 (A) (A) (A) (A) (A) (A) (A) (A) (A) (A) (A) (A)
                 (A) (A) (A) (A) (A) (A) (A) (A) (A) (A) (A) (A)
                 (A) (A) (A) (A) (A) (A) (A) (A) (A) (A) (A) (A)
                 (A) (A) (A) (A) (A) (A) (A) (A) (A) (A) (A) (A)
                 (A) (A) (A) (A) (A) (A) (A) (A) (A) (A) (A) (A)
                 (A) (A) (A) (A) (A) (A) (A) (A) (A) (A) (A) (A)
                 (A) (A) (A) (A) (A) (A) (A) (A) (A) (A) (A) (A)
                 (A) (A) (A) (A) (A) (A) (A) (A) (A) (A) (A) (A)
                 (A) (A) (A) (A) (A) (A) (A) (A) (A) (A) (A) (A)
                 (A) (A) (A) (A) (A) (A) (A) (A) (A) (A) (A) (A)
                 (A) (A) (A) (A) (A) (A)
 Beta  Orbitals:
       Occupied  (A) (A) (A) (A) (A) (A) (A) (A) (A) (A) (A) (A)
                 (A) (A) (A) (A) (A) (A) (A) (A) (A) (A) (A) (A)
                 (A) (A) (A) (A) (A) (A) (A) (A) (A) (A) (A) (A)
                 (A) (A) (A) (A) (A) (A) (A) (A)
       Virtual   (A) (A) (A) (A) (A) (A) (A) (A) (A) (A) (A) (A)
                 (A) (A) (A) (A) (A) (A) (A) (A) (A) (A) (A) (A)
                 (A) (A) (A) (A) (A) (A) (A) (A) (A) (A) (A) (A)
                 (A) (A) (A) (A) (A) (A) (A) (A) (A) (A) (A) (A)
                 (A) (A) (A) (A) (A) (A) (A) (A) (A) (A) (A) (A)
                 (A) (A) (A) (A) (A) (A) (A) (A) (A) (A) (A) (A)
                 (A) (A) (A) (A) (A) (A) (A) (A) (A) (A) (A) (A)
                 (A) (A) (A) (A) (A) (A) (A) (A) (A) (A) (A) (A)
                 (A) (A) (A) (A) (A) (A) (A) (A) (A) (A) (A) (A)
                 (A) (A) (A) (A) (A) (A) (A) (A) (A) (A) (A) (A)
                 (A) (A) (A) (A) (A) (A) (A) (A) (A) (A) (A) (A)
                 (A) (A) (A) (A) (A) (A) (A) (A) (A) (A) (A) (A)
                 (A) (A) (A) (A) (A) (A) (A) (A) (A) (A) (A) (A)
                 (A) (A) (A) (A) (A) (A) (A) (A) (A) (A) (A) (A)
                 (A) (A) (A) (A) (A) (A) (A) (A) (A) (A) (A) (A)
                 (A) (A) (A) (A) (A) (A) (A) (A) (A) (A) (A) (A)
                 (A) (A) (A) (A) (A) (A) (A) (A) (A) (A) (A) (A)
                 (A) (A) (A) (A) (A) (A) (A) (A) (A) (A) (A) (A)
                 (A) (A) (A) (A) (A) (A) (A) (A) (A) (A) (A) (A)
                 (A) (A) (A) (A) (A) (A) (A) (A) (A) (A) (A) (A)
                 (A) (A) (A) (A) (A) (A) (A) (A) (A) (A) (A) (A)
                 (A) (A) (A) (A) (A) (A) (A) (A) (A) (A) (A) (A)
                 (A) (A) (A) (A) (A) (A) (A) (A) (A) (A) (A) (A)
                 (A) (A) (A) (A) (A) (A) (A) (A) (A) (A) (A) (A)
                 (A) (A) (A) (A) (A) (A) (A) (A) (A) (A) (A) (A)
                 (A) (A) (A) (A) (A) (A) (A) (A) (A) (A) (A) (A)
                 (A) (A) (A) (A) (A) (A) (A) (A) (A) (A) (A) (A)
                 (A) (A) (A) (A) (A) (A) (A)
 The electronic state is 2-A.
 Alpha  occ. eigenvalues --  -19.17770 -19.17672 -10.22388 -10.19695 -10.17021
 Alpha  occ. eigenvalues --  -10.16506 -10.16179 -10.15942 -10.15868 -10.15375
 Alpha  occ. eigenvalues --  -10.15319  -1.18277  -0.90713  -0.81647  -0.79527
 Alpha  occ. eigenvalues --   -0.74553  -0.68449  -0.68104  -0.67414  -0.60352
 Alpha  occ. eigenvalues --   -0.57103  -0.55585  -0.53965  -0.49950  -0.47411
 Alpha  occ. eigenvalues --   -0.46981  -0.44523  -0.43818  -0.43370  -0.41796
 Alpha  occ. eigenvalues --   -0.41204  -0.40159  -0.38391  -0.38205  -0.36663
 Alpha  occ. eigenvalues --   -0.36380  -0.35110  -0.34404  -0.33411  -0.32309
 Alpha  occ. eigenvalues --   -0.31799  -0.31625  -0.30553  -0.24081  -0.21765
 Alpha virt. eigenvalues --   -0.01257  -0.00208   0.00241   0.00771   0.01665
 Alpha virt. eigenvalues --    0.02161   0.02398   0.03627   0.03774   0.03982
 Alpha virt. eigenvalues --    0.04411   0.05077   0.05653   0.05837   0.06249
 Alpha virt. eigenvalues --    0.06907   0.07599   0.08187   0.08465   0.08813
 Alpha virt. eigenvalues --    0.09189   0.09756   0.10575   0.10883   0.11315
 Alpha virt. eigenvalues --    0.11803   0.12321   0.12403   0.12500   0.12980
 Alpha virt. eigenvalues --    0.13501   0.13523   0.13890   0.14276   0.14415
 Alpha virt. eigenvalues --    0.14543   0.14976   0.15141   0.15685   0.15763
 Alpha virt. eigenvalues --    0.16020   0.16830   0.16969   0.17317   0.17680
 Alpha virt. eigenvalues --    0.18207   0.18394   0.18435   0.18605   0.18920
 Alpha virt. eigenvalues --    0.19718   0.20055   0.20291   0.21306   0.21499
 Alpha virt. eigenvalues --    0.21781   0.22017   0.22131   0.22364   0.23061
 Alpha virt. eigenvalues --    0.23672   0.24088   0.24476   0.25003   0.25731
 Alpha virt. eigenvalues --    0.26220   0.26867   0.27059   0.27542   0.27931
 Alpha virt. eigenvalues --    0.28643   0.28909   0.30086   0.30628   0.31092
 Alpha virt. eigenvalues --    0.32184   0.32591   0.33313   0.33397   0.34343
 Alpha virt. eigenvalues --    0.34515   0.34741   0.35302   0.35878   0.36317
 Alpha virt. eigenvalues --    0.37242   0.37949   0.38898   0.39747   0.41058
 Alpha virt. eigenvalues --    0.41508   0.44187   0.44425   0.46116   0.46981
 Alpha virt. eigenvalues --    0.48076   0.50322   0.51550   0.52626   0.53976
 Alpha virt. eigenvalues --    0.54557   0.55109   0.56155   0.57209   0.57993
 Alpha virt. eigenvalues --    0.58375   0.59770   0.61344   0.62107   0.62788
 Alpha virt. eigenvalues --    0.63799   0.64885   0.65954   0.65985   0.66892
 Alpha virt. eigenvalues --    0.67307   0.68585   0.69056   0.69541   0.70080
 Alpha virt. eigenvalues --    0.70676   0.71637   0.71952   0.72999   0.73365
 Alpha virt. eigenvalues --    0.74490   0.75346   0.75977   0.76545   0.77007
 Alpha virt. eigenvalues --    0.78124   0.78877   0.79356   0.80713   0.81323
 Alpha virt. eigenvalues --    0.82165   0.84836   0.85579   0.87875   0.91355
 Alpha virt. eigenvalues --    0.95024   0.96531   0.98367   0.99830   1.01382
 Alpha virt. eigenvalues --    1.02312   1.04248   1.06893   1.07650   1.08532
 Alpha virt. eigenvalues --    1.09783   1.12584   1.13900   1.14309   1.16632
 Alpha virt. eigenvalues --    1.18124   1.20194   1.20372   1.23927   1.26131
 Alpha virt. eigenvalues --    1.28579   1.32146   1.36140   1.36603   1.40948
 Alpha virt. eigenvalues --    1.41634   1.44219   1.44988   1.46478   1.46667
 Alpha virt. eigenvalues --    1.47684   1.48011   1.48884   1.49848   1.53914
 Alpha virt. eigenvalues --    1.55354   1.56973   1.57905   1.58588   1.59134
 Alpha virt. eigenvalues --    1.59552   1.60151   1.60846   1.61448   1.62555
 Alpha virt. eigenvalues --    1.62739   1.64338   1.65334   1.65468   1.66848
 Alpha virt. eigenvalues --    1.67654   1.68185   1.69091   1.71190   1.71728
 Alpha virt. eigenvalues --    1.72563   1.74216   1.74420   1.75628   1.77467
 Alpha virt. eigenvalues --    1.77913   1.78901   1.79847   1.80584   1.81967
 Alpha virt. eigenvalues --    1.83208   1.83804   1.87166   1.88836   1.90222
 Alpha virt. eigenvalues --    1.91716   1.96881   1.97965   2.00164   2.02384
 Alpha virt. eigenvalues --    2.04017   2.05568   2.07721   2.08512   2.10267
 Alpha virt. eigenvalues --    2.13276   2.14483   2.15373   2.16452   2.19137
 Alpha virt. eigenvalues --    2.22222   2.22263   2.27189   2.28530   2.30279
 Alpha virt. eigenvalues --    2.32094   2.34020   2.35503   2.37961   2.40542
 Alpha virt. eigenvalues --    2.41607   2.43028   2.46774   2.47488   2.47939
 Alpha virt. eigenvalues --    2.48659   2.49150   2.50682   2.51694   2.52584
 Alpha virt. eigenvalues --    2.53545   2.53872   2.54764   2.55624   2.56548
 Alpha virt. eigenvalues --    2.58355   2.60388   2.60718   2.62669   2.64507
 Alpha virt. eigenvalues --    2.65350   2.66188   2.67645   2.68273   2.69670
 Alpha virt. eigenvalues --    2.70755   2.71994   2.74526   2.75593   2.76860
 Alpha virt. eigenvalues --    2.77375   2.77686   2.80216   2.82113   2.82765
 Alpha virt. eigenvalues --    2.86014   2.88260   2.90534   2.91615   2.94116
 Alpha virt. eigenvalues --    2.96319   2.97501   2.98546   2.99178   3.02710
 Alpha virt. eigenvalues --    3.02975   3.06322   3.07510   3.09723   3.14137
 Alpha virt. eigenvalues --    3.18090   3.20685   3.26534   3.32670   3.41733
 Alpha virt. eigenvalues --    3.44267   3.51633   3.65553   3.76799   3.78948
 Alpha virt. eigenvalues --    3.79517   3.79784   3.80781   3.82395   3.82865
 Alpha virt. eigenvalues --    3.84450   3.85883   3.86172   3.89092   3.93512
 Alpha virt. eigenvalues --    3.99642   4.01661   4.10487   4.19251   4.22954
 Alpha virt. eigenvalues --    4.30415   4.30684   4.39620   4.89968   4.95606
 Alpha virt. eigenvalues --    5.09426   5.32746   5.55300   6.10260  23.73894
 Alpha virt. eigenvalues --   23.83142  23.84056  23.90622  23.92510  23.93196
 Alpha virt. eigenvalues --   23.97300  23.98335  23.99192  49.85026  49.89473
  Beta  occ. eigenvalues --  -19.17767 -19.17472 -10.22403 -10.18303 -10.17021
  Beta  occ. eigenvalues --  -10.16534 -10.16211 -10.15922 -10.15868 -10.15375
  Beta  occ. eigenvalues --  -10.15319  -1.18052  -0.90368  -0.81419  -0.78628
  Beta  occ. eigenvalues --   -0.74137  -0.68242  -0.68099  -0.67289  -0.60065
  Beta  occ. eigenvalues --   -0.56701  -0.55567  -0.52952  -0.49405  -0.47133
  Beta  occ. eigenvalues --   -0.46651  -0.44272  -0.43548  -0.43249  -0.41652
  Beta  occ. eigenvalues --   -0.40436  -0.39990  -0.38282  -0.37956  -0.36538
  Beta  occ. eigenvalues --   -0.36229  -0.34942  -0.34048  -0.33222  -0.31971
  Beta  occ. eigenvalues --   -0.31633  -0.31572  -0.30310  -0.23633
  Beta virt. eigenvalues --   -0.07871  -0.01216  -0.00207   0.00282   0.00779
  Beta virt. eigenvalues --    0.01658   0.02163   0.02421   0.03692   0.03788
  Beta virt. eigenvalues --    0.03997   0.04468   0.05196   0.05819   0.05980
  Beta virt. eigenvalues --    0.06418   0.06938   0.07664   0.08252   0.08524
  Beta virt. eigenvalues --    0.08872   0.09211   0.09751   0.10599   0.10887
  Beta virt. eigenvalues --    0.11333   0.11813   0.12330   0.12451   0.12587
  Beta virt. eigenvalues --    0.12998   0.13505   0.13588   0.14049   0.14314
  Beta virt. eigenvalues --    0.14481   0.14573   0.15023   0.15244   0.15772
  Beta virt. eigenvalues --    0.15802   0.16246   0.16899   0.17076   0.17338
  Beta virt. eigenvalues --    0.17778   0.18284   0.18514   0.18577   0.18755
  Beta virt. eigenvalues --    0.18983   0.19972   0.20157   0.20475   0.21443
  Beta virt. eigenvalues --    0.21599   0.21880   0.22085   0.22187   0.22607
  Beta virt. eigenvalues --    0.23113   0.23806   0.24163   0.24634   0.25114
  Beta virt. eigenvalues --    0.25888   0.26395   0.27069   0.27339   0.27824
  Beta virt. eigenvalues --    0.28057   0.28854   0.29428   0.30297   0.30862
  Beta virt. eigenvalues --    0.31288   0.32386   0.32699   0.33421   0.33569
  Beta virt. eigenvalues --    0.34442   0.34750   0.34935   0.35535   0.36062
  Beta virt. eigenvalues --    0.36531   0.37457   0.38004   0.39000   0.39846
  Beta virt. eigenvalues --    0.41187   0.41788   0.44250   0.44721   0.46224
  Beta virt. eigenvalues --    0.47120   0.48282   0.50483   0.51618   0.52709
  Beta virt. eigenvalues --    0.54087   0.54605   0.55222   0.56289   0.57376
  Beta virt. eigenvalues --    0.58099   0.58462   0.59854   0.61734   0.62393
  Beta virt. eigenvalues --    0.63510   0.63923   0.64982   0.66111   0.66219
  Beta virt. eigenvalues --    0.67099   0.67876   0.68687   0.69326   0.69633
  Beta virt. eigenvalues --    0.70272   0.70753   0.71732   0.72198   0.73146
  Beta virt. eigenvalues --    0.73747   0.74689   0.75417   0.76131   0.76974
  Beta virt. eigenvalues --    0.77804   0.78312   0.79011   0.79527   0.80883
  Beta virt. eigenvalues --    0.81906   0.82470   0.85154   0.85760   0.88037
  Beta virt. eigenvalues --    0.92219   0.95491   0.96775   0.98444   1.00562
  Beta virt. eigenvalues --    1.01494   1.02402   1.04345   1.07286   1.07853
  Beta virt. eigenvalues --    1.08762   1.09947   1.12641   1.13995   1.14421
  Beta virt. eigenvalues --    1.16688   1.18215   1.20286   1.20675   1.24090
  Beta virt. eigenvalues --    1.26274   1.28876   1.32411   1.36449   1.36942
  Beta virt. eigenvalues --    1.41438   1.41786   1.45139   1.45246   1.46575
  Beta virt. eigenvalues --    1.47187   1.47788   1.48345   1.48953   1.49907
  Beta virt. eigenvalues --    1.54257   1.55797   1.57637   1.58366   1.58655
  Beta virt. eigenvalues --    1.59359   1.59879   1.60700   1.61287   1.61558
  Beta virt. eigenvalues --    1.62812   1.63513   1.64600   1.65413   1.65825
  Beta virt. eigenvalues --    1.67362   1.67753   1.68454   1.69253   1.71265
  Beta virt. eigenvalues --    1.71839   1.72854   1.74306   1.74675   1.75830
  Beta virt. eigenvalues --    1.77591   1.78117   1.79041   1.79977   1.80700
  Beta virt. eigenvalues --    1.82096   1.83429   1.84195   1.87600   1.89593
  Beta virt. eigenvalues --    1.90751   1.92230   1.97366   1.98123   2.00507
  Beta virt. eigenvalues --    2.02643   2.04171   2.05932   2.07748   2.08587
  Beta virt. eigenvalues --    2.10440   2.13852   2.14699   2.15455   2.16678
  Beta virt. eigenvalues --    2.19400   2.22372   2.22668   2.27612   2.28801
  Beta virt. eigenvalues --    2.30686   2.32232   2.34544   2.36370   2.38192
  Beta virt. eigenvalues --    2.40875   2.41711   2.43349   2.46833   2.47729
  Beta virt. eigenvalues --    2.48158   2.48799   2.49327   2.50732   2.51768
  Beta virt. eigenvalues --    2.52703   2.53661   2.53980   2.54929   2.55666
  Beta virt. eigenvalues --    2.56720   2.58478   2.60573   2.60929   2.62836
  Beta virt. eigenvalues --    2.64633   2.65460   2.66372   2.68036   2.68482
  Beta virt. eigenvalues --    2.69884   2.70940   2.72155   2.74775   2.76002
  Beta virt. eigenvalues --    2.76992   2.77440   2.77794   2.80545   2.82183
  Beta virt. eigenvalues --    2.82963   2.86127   2.88411   2.91217   2.91750
  Beta virt. eigenvalues --    2.94276   2.96332   2.98106   2.98717   2.99340
  Beta virt. eigenvalues --    3.02761   3.03459   3.07523   3.07902   3.11292
  Beta virt. eigenvalues --    3.14459   3.18160   3.21351   3.27058   3.32779
  Beta virt. eigenvalues --    3.41904   3.44461   3.51668   3.66386   3.76927
  Beta virt. eigenvalues --    3.78951   3.79537   3.79970   3.80804   3.82533
  Beta virt. eigenvalues --    3.82907   3.84554   3.85944   3.86285   3.89195
  Beta virt. eigenvalues --    3.93620   3.99666   4.01950   4.10667   4.19622
  Beta virt. eigenvalues --    4.23982   4.30525   4.30991   4.39788   4.90038
  Beta virt. eigenvalues --    4.95643   5.09688   5.33072   5.55477   6.10371
  Beta virt. eigenvalues --   23.75478  23.83133  23.84056  23.90627  23.92515
  Beta virt. eigenvalues --   23.93193  23.97283  23.98336  23.99192  49.85103
  Beta virt. eigenvalues --   49.89604
          Condensed to atoms (all electrons):
              1          2          3          4          5          6
     1  C    6.249751   0.392426   0.372210   0.384350  -0.446408   0.620774
     2  H    0.392426   0.585944  -0.050589  -0.018086  -0.085710   0.018576
     3  H    0.372210  -0.050589   0.530785  -0.033370   0.133689  -0.149472
     4  H    0.384350  -0.018086  -0.033370   0.563318  -0.060289   0.044082
     5  C   -0.446408  -0.085710   0.133689  -0.060289   8.838389  -2.310522
     6  C    0.620774   0.018576  -0.149472   0.044082  -2.310522  10.986554
     7  H    0.015951   0.002352  -0.000937   0.001314  -0.137653   0.489801
     8  H   -0.007842   0.001144   0.014519  -0.004226  -0.013532   0.372400
     9  C   -0.384170   0.000803   0.021777  -0.002599   0.568321  -2.823948
    10  H   -0.012184  -0.001379   0.000117   0.000818   0.054202  -0.097771
    11  H    0.048709   0.001574   0.002439  -0.000239   0.095214  -0.086629
    12  C   -0.142091   0.001384  -0.001789  -0.003451  -0.414690   0.329149
    13  H    0.001041  -0.000951   0.000150   0.000206  -0.003808  -0.012812
    14  H   -0.003000   0.001632  -0.000285  -0.000283  -0.018565  -0.033004
    15  C    0.001344   0.001772   0.000268  -0.000810  -0.092786  -0.417799
    16  H    0.002604   0.000038   0.000042  -0.000015   0.003642  -0.009307
    17  C   -0.005897  -0.000071   0.000024  -0.000083  -0.006844  -0.120995
    18  H    0.000153   0.000036   0.000000  -0.000003   0.000567   0.001479
    19  H   -0.000190   0.000014  -0.000005  -0.000006  -0.000663  -0.007400
    20  H   -0.000052  -0.000079   0.000008   0.000015   0.000962   0.001015
    21  C   -0.519734   0.016596  -0.036071  -0.023224  -0.563779  -0.361483
    22  H   -0.048788   0.003566  -0.003330   0.002522  -0.037292   0.048622
    23  H    0.048915  -0.004352   0.002267   0.001223  -0.062001   0.005618
    24  C   -0.000935  -0.000092   0.000150  -0.000060  -0.020043   0.142119
    25  H    0.000137  -0.000003   0.000013  -0.000005  -0.001677   0.009706
    26  H   -0.000128  -0.000002  -0.000023   0.000014   0.003560  -0.019932
    27  H   -0.003268   0.000027  -0.000123  -0.000058  -0.016320  -0.012797
    28  O    0.066659  -0.002470   0.016416  -0.003959  -0.265740   0.085124
    29  O   -0.023935   0.000924  -0.003464  -0.000515  -0.017007  -0.003367
    30  H   -0.004054   0.000059  -0.000603   0.000403   0.021757  -0.001591
              7          8          9         10         11         12
     1  C    0.015951  -0.007842  -0.384170  -0.012184   0.048709  -0.142091
     2  H    0.002352   0.001144   0.000803  -0.001379   0.001574   0.001384
     3  H   -0.000937   0.014519   0.021777   0.000117   0.002439  -0.001789
     4  H    0.001314  -0.004226  -0.002599   0.000818  -0.000239  -0.003451
     5  C   -0.137653  -0.013532   0.568321   0.054202   0.095214  -0.414690
     6  C    0.489801   0.372400  -2.823948  -0.097771  -0.086629   0.329149
     7  H    0.653435  -0.084348  -0.115187  -0.024260   0.017483  -0.001656
     8  H   -0.084348   0.552000   0.015485   0.018713  -0.018495   0.002204
     9  C   -0.115187   0.015485   8.467589   0.538082   0.425710  -1.366405
    10  H   -0.024260   0.018713   0.538082   0.651984  -0.112595  -0.149261
    11  H    0.017483  -0.018495   0.425710  -0.112595   0.766963  -0.168046
    12  C   -0.001656   0.002204  -1.366405  -0.149261  -0.168046   8.793011
    13  H   -0.001908   0.006946  -0.070821   0.021482  -0.012197   0.417884
    14  H    0.003813   0.000162  -0.058814  -0.031520   0.016262   0.435475
    15  C   -0.013543   0.000894   0.460788   0.015897   0.081245  -1.480565
    16  H   -0.001915   0.000616  -0.002938   0.014202   0.020227  -0.155260
    17  C   -0.006606   0.004572  -0.178577  -0.002221  -0.015981   0.407094
    18  H   -0.000633   0.000658   0.001264   0.000824   0.003940  -0.090476
    19  H   -0.000269   0.000322   0.000605  -0.000027  -0.000591   0.042157
    20  H    0.001507  -0.000792   0.000381   0.000096  -0.001857  -0.010065
    21  C    0.029981  -0.038749   0.538831  -0.007666  -0.124253   0.187572
    22  H    0.004498  -0.004400  -0.022058  -0.001652  -0.000069   0.009372
    23  H    0.007734  -0.009074   0.005188  -0.001899   0.018755  -0.043409
    24  C    0.009297  -0.007578   0.020624  -0.032440  -0.008698   0.139946
    25  H    0.000563  -0.000408   0.003346  -0.001064  -0.002587   0.037629
    26  H   -0.000647   0.000170   0.019515   0.004122   0.004390  -0.094956
    27  H   -0.000710   0.000914   0.025884  -0.001557  -0.015431  -0.002522
    28  O    0.008368  -0.002016  -0.024080  -0.003761   0.006826  -0.013304
    29  O   -0.001971   0.011120   0.034991   0.000226   0.017871   0.008641
    30  H    0.000063  -0.003087  -0.012371  -0.000301  -0.004081   0.000285
             13         14         15         16         17         18
     1  C    0.001041  -0.003000   0.001344   0.002604  -0.005897   0.000153
     2  H   -0.000951   0.001632   0.001772   0.000038  -0.000071   0.000036
     3  H    0.000150  -0.000285   0.000268   0.000042   0.000024   0.000000
     4  H    0.000206  -0.000283  -0.000810  -0.000015  -0.000083  -0.000003
     5  C   -0.003808  -0.018565  -0.092786   0.003642  -0.006844   0.000567
     6  C   -0.012812  -0.033004  -0.417799  -0.009307  -0.120995   0.001479
     7  H   -0.001908   0.003813  -0.013543  -0.001915  -0.006606  -0.000633
     8  H    0.006946   0.000162   0.000894   0.000616   0.004572   0.000658
     9  C   -0.070821  -0.058814   0.460788  -0.002938  -0.178577   0.001264
    10  H    0.021482  -0.031520   0.015897   0.014202  -0.002221   0.000824
    11  H   -0.012197   0.016262   0.081245   0.020227  -0.015981   0.003940
    12  C    0.417884   0.435475  -1.480565  -0.155260   0.407094  -0.090476
    13  H    0.607896  -0.077733   0.026679   0.022143   0.002288   0.002682
    14  H   -0.077733   0.670044  -0.045927  -0.014657   0.018262   0.003008
    15  C    0.026679  -0.045927   6.794676   0.585418  -0.174493   0.093285
    16  H    0.022143  -0.014657   0.585418   0.623634  -0.059504   0.015940
    17  C    0.002288   0.018262  -0.174493  -0.059504   5.726278   0.378255
    18  H    0.002682   0.003008   0.093285   0.015940   0.378255   0.563313
    19  H   -0.003434   0.001478  -0.085406  -0.012601   0.402520  -0.032816
    20  H    0.004464  -0.001006  -0.055740  -0.013083   0.407408  -0.047466
    21  C    0.000062   0.004738  -0.002555  -0.005571   0.009941  -0.000596
    22  H   -0.001104   0.000023  -0.001224  -0.000380   0.000214   0.000020
    23  H    0.002326  -0.000798   0.000128   0.000688  -0.000939  -0.000165
    24  C   -0.084630   0.028440  -0.129983  -0.135898  -0.165790  -0.036789
    25  H   -0.005008  -0.002034  -0.101596  -0.008679  -0.008604   0.002177
    26  H    0.016498  -0.003905   0.085594   0.015151  -0.006411   0.011514
    27  H   -0.000709   0.003653  -0.062299  -0.018578   0.018389  -0.006122
    28  O   -0.000023   0.000268   0.001329   0.000346  -0.000335   0.000012
    29  O   -0.000370   0.000095   0.008219   0.000448   0.000568  -0.000060
    30  H    0.000034  -0.000032  -0.002070  -0.000095  -0.000071   0.000012
             19         20         21         22         23         24
     1  C   -0.000190  -0.000052  -0.519734  -0.048788   0.048915  -0.000935
     2  H    0.000014  -0.000079   0.016596   0.003566  -0.004352  -0.000092
     3  H   -0.000005   0.000008  -0.036071  -0.003330   0.002267   0.000150
     4  H   -0.000006   0.000015  -0.023224   0.002522   0.001223  -0.000060
     5  C   -0.000663   0.000962  -0.563779  -0.037292  -0.062001  -0.020043
     6  C   -0.007400   0.001015  -0.361483   0.048622   0.005618   0.142119
     7  H   -0.000269   0.001507   0.029981   0.004498   0.007734   0.009297
     8  H    0.000322  -0.000792  -0.038749  -0.004400  -0.009074  -0.007578
     9  C    0.000605   0.000381   0.538831  -0.022058   0.005188   0.020624
    10  H   -0.000027   0.000096  -0.007666  -0.001652  -0.001899  -0.032440
    11  H   -0.000591  -0.001857  -0.124253  -0.000069   0.018755  -0.008698
    12  C    0.042157  -0.010065   0.187572   0.009372  -0.043409   0.139946
    13  H   -0.003434   0.004464   0.000062  -0.001104   0.002326  -0.084630
    14  H    0.001478  -0.001006   0.004738   0.000023  -0.000798   0.028440
    15  C   -0.085406  -0.055740  -0.002555  -0.001224   0.000128  -0.129983
    16  H   -0.012601  -0.013083  -0.005571  -0.000380   0.000688  -0.135898
    17  C    0.402520   0.407408   0.009941   0.000214  -0.000939  -0.165790
    18  H   -0.032816  -0.047466  -0.000596   0.000020  -0.000165  -0.036789
    19  H    0.566549  -0.020044   0.000357   0.000010  -0.000093  -0.004843
    20  H   -0.020044   0.583622   0.000152  -0.000003   0.000132   0.023379
    21  C    0.000357   0.000152   6.650132   0.383973   0.308898   0.011352
    22  H    0.000010  -0.000003   0.383973   0.556405  -0.028278   0.001076
    23  H   -0.000093   0.000132   0.308898  -0.028278   0.591290   0.000961
    24  C   -0.004843   0.023379   0.011352   0.001076   0.000961   5.716455
    25  H    0.000805   0.001475   0.000022   0.000036   0.000361   0.423886
    26  H    0.000788  -0.002455  -0.000011  -0.000094   0.000046   0.337743
    27  H    0.002820  -0.001853   0.016661   0.000754  -0.007032   0.417125
    28  O   -0.000022  -0.000007   0.158243  -0.093377  -0.011810  -0.000013
    29  O    0.000038  -0.000031  -0.013087   0.025104   0.014530  -0.000480
    30  H   -0.000011   0.000007   0.022617  -0.001829  -0.006263   0.000333
             25         26         27         28         29         30
     1  C    0.000137  -0.000128  -0.003268   0.066659  -0.023935  -0.004054
     2  H   -0.000003  -0.000002   0.000027  -0.002470   0.000924   0.000059
     3  H    0.000013  -0.000023  -0.000123   0.016416  -0.003464  -0.000603
     4  H   -0.000005   0.000014  -0.000058  -0.003959  -0.000515   0.000403
     5  C   -0.001677   0.003560  -0.016320  -0.265740  -0.017007   0.021757
     6  C    0.009706  -0.019932  -0.012797   0.085124  -0.003367  -0.001591
     7  H    0.000563  -0.000647  -0.000710   0.008368  -0.001971   0.000063
     8  H   -0.000408   0.000170   0.000914  -0.002016   0.011120  -0.003087
     9  C    0.003346   0.019515   0.025884  -0.024080   0.034991  -0.012371
    10  H   -0.001064   0.004122  -0.001557  -0.003761   0.000226  -0.000301
    11  H   -0.002587   0.004390  -0.015431   0.006826   0.017871  -0.004081
    12  C    0.037629  -0.094956  -0.002522  -0.013304   0.008641   0.000285
    13  H   -0.005008   0.016498  -0.000709  -0.000023  -0.000370   0.000034
    14  H   -0.002034  -0.003905   0.003653   0.000268   0.000095  -0.000032
    15  C   -0.101596   0.085594  -0.062299   0.001329   0.008219  -0.002070
    16  H   -0.008679   0.015151  -0.018578   0.000346   0.000448  -0.000095
    17  C   -0.008604  -0.006411   0.018389  -0.000335   0.000568  -0.000071
    18  H    0.002177   0.011514  -0.006122   0.000012  -0.000060   0.000012
    19  H    0.000805   0.000788   0.002820  -0.000022   0.000038  -0.000011
    20  H    0.001475  -0.002455  -0.001853  -0.000007  -0.000031   0.000007
    21  C    0.000022  -0.000011   0.016661   0.158243  -0.013087   0.022617
    22  H    0.000036  -0.000094   0.000754  -0.093377   0.025104  -0.001829
    23  H    0.000361   0.000046  -0.007032  -0.011810   0.014530  -0.006263
    24  C    0.423886   0.337743   0.417125  -0.000013  -0.000480   0.000333
    25  H    0.574024  -0.033731  -0.027907  -0.000012  -0.000080   0.000057
    26  H   -0.033731   0.568178  -0.042448  -0.000233   0.000529  -0.000218
    27  H   -0.027907  -0.042448   0.592192  -0.000518  -0.004529   0.000783
    28  O   -0.000012  -0.000233  -0.000518   8.266940  -0.113236  -0.013363
    29  O   -0.000080   0.000529  -0.004529  -0.113236   8.159622   0.137283
    30  H    0.000057  -0.000218   0.000783  -0.013363   0.137283   0.579183
 Mulliken atomic charges:
              1
     1  C   -0.602349
     2  H    0.134919
     3  H    0.185188
     4  H    0.153016
     5  C    0.855028
     6  C   -0.686189
     7  H    0.146085
     8  H    0.191708
     9  C   -0.087216
    10  H    0.160795
    11  H    0.044141
    12  C   -0.673855
    13  H    0.142727
    14  H    0.104211
    15  C    0.509261
    16  H    0.133340
    17  C   -0.622392
    18  H    0.135987
    19  H    0.149959
    20  H    0.129912
    21  C   -0.643348
    22  H    0.207682
    23  H    0.167053
    24  C   -0.644615
    25  H    0.139162
    26  H    0.137383
    27  H    0.145578
    28  O   -0.062256
    29  O   -0.238079
    30  H    0.287164
 Sum of Mulliken atomic charges =   0.00000
 Mulliken charges with hydrogens summed into heavy atoms:
              1
     1  C   -0.129226
     5  C    0.855028
     6  C   -0.348396
     9  C    0.117719
    12  C   -0.426917
    15  C    0.642601
    17  C   -0.206534
    21  C   -0.268614
    24  C   -0.222491
    28  O   -0.062256
    29  O    0.049085
 Sum of Mulliken charges with hydrogens summed into heavy atoms =   0.00000
          Atomic-Atomic Spin Densities.
              1          2          3          4          5          6
     1  C   -0.070225   0.022130  -0.013253   0.019001   0.009684  -0.034036
     2  H    0.022130   0.016593  -0.013304   0.004011  -0.016119   0.009904
     3  H   -0.013253  -0.013304   0.097479  -0.011368  -0.037947  -0.013309
     4  H    0.019001   0.004011  -0.011368   0.010117  -0.015671   0.004230
     5  C    0.009684  -0.016119  -0.037947  -0.015671   1.072454   0.040720
     6  C   -0.034036   0.009904  -0.013309   0.004230   0.040720  -0.224402
     7  H    0.009323   0.005358  -0.008417   0.001354  -0.013915   0.024253
     8  H   -0.015189  -0.004943   0.020301  -0.002157  -0.049956  -0.042551
     9  C    0.008890  -0.010648   0.021538  -0.005305  -0.017570   0.137255
    10  H   -0.000033  -0.000118   0.000088  -0.000007   0.006927  -0.005579
    11  H    0.001047   0.000290  -0.000848  -0.000065  -0.017644  -0.000739
    12  C   -0.000944  -0.002385   0.004325  -0.000709  -0.010675   0.002568
    13  H    0.000087   0.000092  -0.000219   0.000027   0.002484   0.000774
    14  H   -0.000516  -0.000238   0.000340  -0.000056  -0.001475  -0.005478
    15  C   -0.000504  -0.000188   0.000287  -0.000114  -0.004127  -0.004746
    16  H    0.000052   0.000015  -0.000017   0.000005   0.000380   0.001323
    17  C    0.000021  -0.000099   0.000130  -0.000017  -0.001773   0.001083
    18  H   -0.000013  -0.000002   0.000006  -0.000001  -0.000038  -0.000208
    19  H    0.000000  -0.000002   0.000002  -0.000001  -0.000110  -0.000086
    20  H    0.000017   0.000005  -0.000007   0.000001   0.000060   0.000240
    21  C    0.018191  -0.003407   0.000978   0.001783   0.038497   0.052143
    22  H    0.005229   0.000585  -0.002583   0.000918  -0.009215   0.008759
    23  H   -0.001142   0.000262  -0.000865   0.000587   0.005900  -0.001532
    24  C   -0.000543  -0.000029   0.000086  -0.000013  -0.001694  -0.011456
    25  H   -0.000026   0.000001   0.000000   0.000000   0.000094  -0.000847
    26  H    0.000093   0.000010  -0.000034   0.000005   0.000275   0.002001
    27  H   -0.000099  -0.000032   0.000087  -0.000009   0.000757  -0.000317
    28  O   -0.019841  -0.002236   0.019383  -0.003916  -0.097073  -0.030590
    29  O    0.006750   0.000408  -0.004246   0.000611   0.031049   0.020523
    30  H   -0.000909  -0.000045   0.000574  -0.000101  -0.004601  -0.003639
              7          8          9         10         11         12
     1  C    0.009323  -0.015189   0.008890  -0.000033   0.001047  -0.000944
     2  H    0.005358  -0.004943  -0.010648  -0.000118   0.000290  -0.002385
     3  H   -0.008417   0.020301   0.021538   0.000088  -0.000848   0.004325
     4  H    0.001354  -0.002157  -0.005305  -0.000007  -0.000065  -0.000709
     5  C   -0.013915  -0.049956  -0.017570   0.006927  -0.017644  -0.010675
     6  C    0.024253  -0.042551   0.137255  -0.005579  -0.000739   0.002568
     7  H    0.022886  -0.024151  -0.009564  -0.001952  -0.000461  -0.005954
     8  H   -0.024151   0.120766   0.036531   0.002706  -0.001204   0.020259
     9  C   -0.009564   0.036531  -0.048929  -0.000280   0.005653  -0.038983
    10  H   -0.001952   0.002706  -0.000280  -0.000803   0.000502   0.000513
    11  H   -0.000461  -0.001204   0.005653   0.000502  -0.005662   0.008523
    12  C   -0.005954   0.020259  -0.038983   0.000513   0.008523   0.028862
    13  H    0.000762  -0.001778   0.003543  -0.000462   0.000663  -0.005102
    14  H   -0.001699   0.002239  -0.000578   0.000289  -0.000298   0.005353
    15  C   -0.000422  -0.000011   0.018543  -0.001667  -0.000486  -0.011605
    16  H    0.000278  -0.000270   0.002940  -0.000173   0.000201  -0.003203
    17  C   -0.001007   0.001899  -0.015387  -0.000057   0.000727   0.010738
    18  H   -0.000095   0.000167  -0.000591   0.000026  -0.000024   0.001056
    19  H    0.000003   0.000006  -0.000194  -0.000048  -0.000029  -0.000295
    20  H    0.000042  -0.000073  -0.000094   0.000024  -0.000002  -0.000042
    21  C    0.006332  -0.012698  -0.055607  -0.001219   0.007154  -0.008135
    22  H    0.000657  -0.001659  -0.004551   0.000010  -0.000258  -0.000413
    23  H    0.000905  -0.002831  -0.004298  -0.000401   0.001507  -0.001334
    24  C   -0.000871   0.001640  -0.004046   0.000377  -0.001023   0.010809
    25  H   -0.000010   0.000007   0.000102  -0.000021   0.000069   0.000526
    26  H    0.000172  -0.000482   0.000941  -0.000020  -0.000037  -0.002480
    27  H   -0.000181   0.000624  -0.002934   0.000099   0.001163   0.001435
    28  O   -0.005742   0.029599   0.044782   0.000210  -0.001438   0.010728
    29  O    0.002233  -0.013603  -0.021083  -0.000204   0.001795  -0.006375
    30  H   -0.000299   0.001843   0.003653   0.000030  -0.000594   0.000999
             13         14         15         16         17         18
     1  C    0.000087  -0.000516  -0.000504   0.000052   0.000021  -0.000013
     2  H    0.000092  -0.000238  -0.000188   0.000015  -0.000099  -0.000002
     3  H   -0.000219   0.000340   0.000287  -0.000017   0.000130   0.000006
     4  H    0.000027  -0.000056  -0.000114   0.000005  -0.000017  -0.000001
     5  C    0.002484  -0.001475  -0.004127   0.000380  -0.001773  -0.000038
     6  C    0.000774  -0.005478  -0.004746   0.001323   0.001083  -0.000208
     7  H    0.000762  -0.001699  -0.000422   0.000278  -0.001007  -0.000095
     8  H   -0.001778   0.002239  -0.000011  -0.000270   0.001899   0.000167
     9  C    0.003543  -0.000578   0.018543   0.002940  -0.015387  -0.000591
    10  H   -0.000462   0.000289  -0.001667  -0.000173  -0.000057   0.000026
    11  H    0.000663  -0.000298  -0.000486   0.000201   0.000727  -0.000024
    12  C   -0.005102   0.005353  -0.011605  -0.003203   0.010738   0.001056
    13  H   -0.000167  -0.000312   0.001497   0.000174  -0.001678  -0.000103
    14  H   -0.000312   0.001243  -0.001358  -0.000302   0.002158   0.000083
    15  C    0.001497  -0.001358   0.023396   0.001210  -0.013178  -0.001356
    16  H    0.000174  -0.000302   0.001210   0.000659  -0.001893  -0.000057
    17  C   -0.001678   0.002158  -0.013178  -0.001893   0.009541   0.000771
    18  H   -0.000103   0.000083  -0.001356  -0.000057   0.000771   0.000066
    19  H   -0.000020   0.000069  -0.000095  -0.000075   0.000270  -0.000017
    20  H    0.000030  -0.000049   0.000018   0.000020  -0.000025  -0.000003
    21  C    0.000356   0.000269   0.001444  -0.000035  -0.000370  -0.000017
    22  H    0.000063  -0.000038  -0.000045   0.000008  -0.000036  -0.000001
    23  H   -0.000041  -0.000069  -0.000228   0.000014  -0.000012  -0.000005
    24  C   -0.000956   0.001047  -0.007261  -0.000873   0.008289   0.000312
    25  H   -0.000081  -0.000009  -0.000143  -0.000033   0.000487   0.000003
[...]
 473,0.00002182,-0.00000892,-0.00002039,-0.00953036,0.45620047,-0.00001
 296,-0.00000479,0.00002447,0.00000570,0.00000055,-0.00000673,-0.000006
 55,-0.00000100,-0.00001235,-0.00002109,-0.00000009,0.00000200,0.000057
 52,0.00008844,-0.00005294,0.00018712,-0.00048813,0.00021667,-0.0001116
 0,0.00001061,-0.00010032,-0.00000885,0.00003590,-0.00006061,-0.0003266
 2,0.00060090,-0.00009954,-0.00014334,-0.00018363,0.00012142,0.00026692
 ,-0.00062651,0.00032038,-0.00183273,-0.01727771,-0.00116191,0.00013821
 ,-0.00133183,0.00057203,-0.00292996,-0.00195929,-0.00119292,0.00093515
 ,0.00435115,-0.07853000,0.00104999,0.03225177,0.00046575,0.00102126,-0
 .01642147,-0.00038457,-0.00021946,-0.00114631,0.00047196,-0.00085978,0
 .00069805,0.00026913,0.00228115,-0.00211481,-0.00100492,0.00010539,-0.
 00002628,0.00010303,-0.00004489,0.00000636,-0.00000321,0.00000877,-0.0
 0001868,-0.00005809,-0.00094307,0.00518519,0.55818635,-0.00003478,0.00
 000223,0.00002844,0.00000892,0.00000005,-0.00000196,-0.00000175,0.0000
 0142,-0.00001567,-0.00002647,-0.00000393,0.00000524,0.00007584,0.00001
 037,-0.00003858,0.00010926,-0.00020032,0.00008531,-0.00011820,-0.00004
 258,-0.00005471,-0.00001095,0.00001811,-0.00000834,-0.00001530,0.00031
 212,-0.00023067,-0.00001103,-0.00011125,0.00006035,0.00035013,-0.00032
 596,-0.00000595,0.00085003,-0.00006807,0.00093009,0.00004179,0.0001472
 0,0.00001263,-0.00004567,-0.00009849,-0.00013040,-0.00172486,0.0001746
 5,-0.00007282,0.00002719,-0.00044559,0.00036183,0.00070436,0.00093001,
 0.00042191,-0.00002822,-0.00001049,0.00003977,0.00055020,-0.00001829,-
 0.00010655,0.00020674,-0.00009316,0.00016162,0.00006944,-0.00004509,0.
 00002590,-0.00004009,-0.00000212,0.00000454,0.00001917,-0.00003001,-0.
 00004714,-0.22256586,-0.06484471,-0.10174764,0.24128706,-0.00002687,-0
 .00000128,0.00003114,0.00000720,0.00000943,0.00000073,-0.00000312,0.00
 000337,-0.00001331,-0.00001880,-0.00000684,0.00000355,0.00000880,0.000
 01844,-0.00003717,-0.00021525,0.00010820,0.00013207,0.00006544,0.00011
 021,0.00004035,0.00000831,-0.00000439,-0.00001427,0.00071179,-0.000298
 07,-0.00025299,-0.00005997,0.00002663,0.00003883,-0.00018260,0.0003104
 8,0.00006162,0.00171154,-0.00675074,0.00099678,0.00023512,0.00012814,-
 0.00005685,-0.00180453,-0.00091418,-0.00094994,-0.02780548,-0.01021395
 ,-0.01716404,0.00002129,0.00119779,0.00056534,-0.00157577,0.00150695,-
 0.00017477,0.00015879,-0.00006543,0.00000489,0.00105902,-0.00011496,0.
 00004147,0.00005218,0.00035313,0.00040634,-0.00000632,-0.00009062,-0.0
 0000406,-0.00001260,0.00001416,0.00000084,-0.00000168,-0.00000834,-0.0
 0000514,-0.06354861,-0.06925829,-0.03662912,0.07100681,0.07739220,-0.0
 0001206,0.00000026,0.00000590,0.00000272,-0.00000034,0.00000132,0.0000
 0075,0.00000192,-0.00000626,-0.00000521,-0.00000177,0.00000171,0.00000
 930,-0.00000920,0.00000470,-0.00008989,0.00014205,0.00000407,0.0000584
 1,0.00001523,0.00002868,0.00001218,0.00000477,0.00001990,0.00022689,-0
 .00010827,0.00009470,-0.00004131,-0.00000341,0.00000476,-0.00012012,0.
 00017472,-0.00009938,0.00032937,-0.00040270,0.00053733,0.00029014,0.00
 017675,0.00051106,-0.00025263,-0.00021189,0.00031895,0.00090762,0.0007
 0180,-0.00082048,0.00040721,-0.00032218,0.00044495,-0.00044760,0.00011
 795,-0.00014548,-0.00011824,-0.00005382,-0.00006925,0.00041090,-0.0002
 9221,0.00020879,0.00027775,0.00013873,0.00002639,-0.00000551,-0.000015
 64,-0.00002422,-0.00000228,-0.00000038,0.00000421,-0.00000093,-0.00000
 613,0.00000315,-0.10128093,-0.03736012,-0.10541564,0.11202275,0.041220
 37,0.11063156,0.00000318,-0.00000981,0.00000465,-0.00000243,0.00000313
 ,-0.00000036,0.00000055,-0.00000020,-0.00000047,0.00000550,-0.00000002
 ,-0.00000243,-0.00002814,0.00000407,-0.00002204,0.00001861,-0.00003066
 ,0.00000633,-0.00000143,-0.00000716,-0.00000553,-0.00002822,-0.0000169
 5,-0.00004392,-0.00022393,0.00002618,-0.00010881,0.00008285,0.00015001
 ,-0.00007659,-0.00004039,0.00000833,0.00017083,0.00032040,-0.00028154,
 0.00124364,0.00001919,-0.00013202,-0.00022785,-0.00001304,0.00011861,-
 0.00013634,-0.00112803,-0.00087910,0.00155392,0.00064801,-0.00041210,-
 0.00001212,0.00014239,0.00025324,-0.00093258,0.00023467,0.00017898,0.0
 0011016,-0.00000610,0.00004409,-0.00012847,-0.00009471,-0.00013754,0.0
 0013786,0.00004354,-0.00001046,0.00003602,0.00000284,0.00000399,-0.000
 00615,-0.00000861,0.00000013,0.00000821,-0.04745217,-0.00205111,0.0065
 7486,0.00137129,0.01011474,-0.02559848,0.04617630,-0.00000391,-0.00000
 001,0.00000683,0.00000074,0.00000047,0.00000231,-0.00000056,0.00000147
 ,0.00000018,0.00000079,-0.00000175,-0.00000107,-0.00000727,-0.00000476
 ,-0.00002608,-0.00005523,0.00003821,0.00001354,0.00000164,0.00000300,0
 .00000988,-0.00003043,-0.00000569,-0.00002180,-0.00012464,-0.00003139,
 -0.00010232,0.00018932,0.00000953,-0.00012816,-0.00005920,0.00001718,0
 .00003857,0.00098604,0.00162383,0.00153922,-0.00051888,0.00009163,-0.0
 0102784,0.00027348,0.00041903,-0.00033327,-0.00105769,-0.01372231,0.03
 244106,-0.00021624,-0.00675896,-0.00044717,-0.00093736,0.00164370,0.00
 113829,0.00053893,-0.00012687,-0.00084432,0.00006727,-0.00006326,-0.00
 010441,-0.00018178,0.00035915,-0.00037862,-0.00000999,-0.00000400,-0.0
 0000480,0.00000318,-0.00000048,0.00000165,-0.00000041,0.00000089,0.000
 00115,-0.00211827,-0.07720282,0.08210095,0.00121106,0.00293722,-0.0094
 9498,0.00286902,0.08662604,0.00001353,0.00001430,-0.00002402,-0.000001
 53,-0.00000780,-0.00000250,0.00000535,-0.00000426,0.00001721,0.0000078
 7,0.00000413,-0.00000135,0.00000356,0.00000380,0.00003584,-0.00002139,
 0.00003473,-0.00008116,0.00001537,0.00000303,0.00001401,0.00003127,0.0
 0000726,0.00005062,0.00014222,0.00010574,0.00009451,-0.00006757,-0.000
 10090,0.00005524,0.00002564,0.00010092,-0.00017049,-0.00018841,-0.0005
 4750,0.00079669,0.00054435,0.00037643,0.00043211,0.00010441,0.00003173
 ,0.00027252,0.00013102,0.00064145,-0.00102771,-0.00007278,-0.00008440,
 0.00163224,-0.00001789,-0.00043788,0.00075786,-0.00050565,0.00039361,0
 .00037443,0.00005272,0.00002787,-0.00008252,-0.00010471,0.00005655,0.0
 0028532,-0.00007299,0.00005283,-0.00005114,0.00000606,-0.00001057,0.00
 000804,0.00001111,0.00001921,0.00000549,0.00650774,0.08235921,-0.26883
 696,0.00090506,0.00462383,-0.01402817,-0.00717622,-0.09209993,0.293060
 26,0.00001844,-0.00001505,-0.00001383,-0.00000380,-0.00000277,0.000000
 77,-0.00000300,0.00000298,-0.00000430,0.00001284,0.00000589,-0.0000002
 4,0.00001247,0.00001471,0.00003908,0.00016140,-0.00019249,-0.00008229,
 -0.00006758,-0.00005524,-0.00003976,-0.00000339,0.00000983,-0.00001139
 ,-0.00092945,-0.00040002,-0.00019461,0.00001318,0.00003602,0.00003496,
 -0.00083131,-0.00145633,-0.00033893,-0.00007316,0.00041986,-0.00026668
 ,-0.00001860,-0.00004347,-0.00005202,0.00012215,0.00010432,0.00012797,
 0.00200612,-0.00113488,-0.00184092,0.00026035,0.00058723,-0.00029663,0
 .00062547,0.00044207,-0.00055414,-0.00001045,-0.00014217,-0.00001588,0
 .00044847,-0.00022164,0.00007507,0.00012608,-0.00002319,0.00026099,-0.
 00000529,0.00006455,-0.00000068,0.00001912,-0.00000148,-0.00000028,-0.
 00000947,-0.00000283,0.00001246,-0.21008447,0.08148867,0.09664626,-0.0
 2095614,0.01012346,0.01303979,-0.00005142,-0.00083630,-0.00031272,0.22
 917668,0.00002018,-0.00001577,-0.00001679,-0.00000524,0.00000573,0.000
 00146,0.00000309,0.00000334,0.00000748,0.00002205,0.00000269,-0.000004
 77,-0.00009036,-0.00001591,0.00005425,-0.00032757,0.00036689,0.0000061
 8,0.00019241,0.00011060,0.00009273,0.00005671,-0.00001035,0.00005764,0
 .00010248,-0.00064435,-0.00003933,-0.00009283,-0.00012061,0.00007257,-
 0.00119558,0.00032277,-0.00029208,0.00082852,0.00114183,-0.00003796,-0
 .00011476,-0.00005835,-0.00001240,0.00006153,0.00009959,0.00018421,0.0
 2693970,-0.01074920,-0.01600006,0.00002554,0.00133632,0.00056905,-0.00
 201056,-0.00682591,0.00080161,-0.00020338,0.00010053,-0.00015595,-0.00
 008197,0.00015804,0.00027997,0.00180085,-0.00100546,-0.00099499,-0.000
 12597,0.00003074,-0.00007642,0.00003661,-0.00000107,-0.00000057,-0.000
 01715,0.00004549,0.00003469,0.08015824,-0.08693036,-0.04714524,-0.0075
 2165,0.00352709,0.00557909,-0.00984009,0.00415221,0.00451918,-0.088723
 97,0.09503642,0.00000945,-0.00000480,-0.00000404,-0.00000394,0.0000055
 6,0.00000152,0.00000317,-0.00000173,0.00000662,0.00001292,-0.00000077,
 -0.00000270,-0.00006653,0.00000090,0.00000713,-0.00020086,0.00034017,-
 0.00006975,0.00012754,0.00010131,0.00007724,-0.00000461,-0.00004676,-0
 .00001899,0.00040378,-0.00073170,0.00026878,-0.00000971,0.00020873,-0.
 00012670,-0.00064464,0.00028616,0.00016379,0.00065757,-0.00022511,-0.0
 0014324,0.00007377,-0.00001990,-0.00000117,-0.00013227,0.00004503,0.00
 000503,-0.00143736,0.00081147,-0.00095494,-0.00046676,-0.00028633,0.00
 048288,-0.00043651,-0.00023526,0.00067778,-0.00029393,0.00024933,0.000
 43396,0.00031550,0.00005183,-0.00000819,0.00023382,0.00001886,0.000446
 65,-0.00000945,-0.00005691,-0.00001373,0.00001903,0.00001215,-0.000002
 83,-0.00001560,0.00000968,0.00004937,0.09596462,-0.04791583,-0.1037634
 3,-0.01257213,0.00714714,0.00775075,0.02465836,-0.01227851,-0.01363541
 ,-0.10622221,0.05245182,0.10837102,-0.00054297,-0.00168986,0.00105855,
 0.00039654,0.00035985,0.00026026,0.00102375,0.00086776,0.00123581,0.00
 047441,0.00035431,-0.00030850,-0.00961996,0.02573941,-0.00478789,0.001
 23821,-0.00037846,0.00085463,-0.00033028,0.00038077,0.00040780,-0.0013
 0399,0.00030511,0.00094374,-0.00028218,0.00044165,0.00041881,0.0002107
 1,-0.00032895,0.00008632,-0.00020083,0.00019747,-0.00028674,0.00016032
 ,-0.00003018,-0.00005745,-0.00006668,0.00001410,0.00007216,-0.00005579
 ,0.00003976,0.00002549,0.00006341,0.00009837,0.00011903,0.00000894,-0.
 00002813,0.00000247,-0.00004084,-0.00006974,-0.00006752,0.00000702,0.0
 0000266,0.00002559,-0.00007729,-0.00000355,-0.00000889,0.00001990,0.00
 000359,0.00000406,-0.11738253,0.01793524,-0.01644032,0.00765562,-0.015
 26490,0.01361115,-0.01929272,0.02607359,-0.02447652,-0.00002949,-0.000
 01413,-0.00005099,-0.00006324,-0.00002657,-0.00001669,0.00000059,0.000
 00647,0.00003664,0.00002099,0.00007422,0.00000989,0.26372928,0.0002483
 9,0.00386191,-0.00234346,0.00019541,-0.00012533,0.00030868,-0.00115544
 ,-0.00105825,-0.00037539,-0.00065703,-0.00051968,0.00025987,0.02566467
 ,-0.03928555,0.01371997,-0.00219089,-0.00008552,-0.00048109,0.00076874
 ,-0.00042462,-0.00059835,0.00129975,0.00008745,-0.00110856,-0.00043019
 ,-0.00079396,-0.00034966,0.00007614,-0.00006278,0.00016355,0.00024519,
 0.00034182,0.00007265,0.00020701,0.00032332,0.00028594,-0.00004009,-0.
 00002672,0.00002103,-0.00010618,0.00008315,0.00004876,-0.00002960,-0.0
 0013000,-0.00018687,0.00000904,0.00001015,0.00002353,0.00006624,0.0000
 9305,0.00007753,-0.00001329,-0.00000971,-0.00002466,0.00009231,-0.0000
 0017,0.00000936,-0.00003496,0.00001363,-0.00000254,0.05424704,-0.07946
 162,0.02357132,0.00279207,-0.00893400,0.01332141,0.00142684,0.00516005
 ,0.00585017,0.00010351,-0.00002194,0.00002640,0.00006267,0.00005359,0.
 00002133,-0.00000756,-0.00000392,-0.00003525,-0.00004011,-0.00004264,0
 .00000502,-0.02983858,0.20302491,-0.00053258,-0.00023981,0.00059467,0.
 00026546,-0.00000229,0.00020221,0.00044121,0.00031053,0.00060008,0.000
 26079,0.00009423,-0.00022312,0.00497070,0.00640224,0.01419848,-0.00016
 321,0.00037648,-0.00173798,-0.00005554,0.00002642,-0.00015803,0.000269
 34,-0.00035550,-0.00000774,-0.00052175,-0.00036624,-0.00016963,-0.0000
 0874,-0.00015841,0.00014296,0.00005301,0.00028681,-0.00017373,0.000157
 57,0.00015940,0.00001422,-0.00004455,-0.00001596,0.00007151,-0.0000654
 8,0.00006349,0.00003388,0.00001975,-0.00000896,0.00001281,0.00001448,-
 0.00001173,0.00001702,-0.00000257,0.00000430,-0.00000915,-0.00000390,-
 0.00000356,0.00001132,-0.00000711,-0.00000180,-0.00000084,-0.00000159,
 0.00000689,0.00000116,-0.03886902,0.01857409,-0.06867843,-0.00827508,0
 .01974886,-0.02163295,-0.01183809,0.01826033,-0.01466516,0.00004914,-0
 .00001584,-0.00004462,-0.00001354,-0.00000040,0.00000472,-0.00001803,0
 .00000075,0.00002706,-0.00000861,0.00002920,0.00000746,-0.04585056,-0.
 11948911,0.19584382,0.00005752,0.00004559,0.00025426,0.00006167,-0.000
 08422,-0.00005295,-0.00016390,-0.00002033,-0.00009277,0.00010011,0.000
 12516,-0.00008219,0.00180188,0.00007449,-0.00000620,-0.00065369,-0.000
 28893,-0.00053965,0.00025233,0.00008674,-0.00012600,0.00015890,-0.0002
 6225,-0.00044413,-0.00012376,-0.00097584,-0.00049356,-0.00013444,0.000
 40289,-0.00005372,0.00044922,0.00045893,0.00044216,0.00016028,0.000254
 16,0.00000161,0.00003178,-0.00007005,-0.00005441,-0.00013926,0.0001094
 4,0.00004534,0.00001935,-0.00007501,0.00004817,-0.00000409,0.00002655,
 -0.00002378,0.00002613,0.00003809,-0.00000857,0.00000658,-0.00000744,0
 .00000047,-0.00001811,-0.00001138,-0.00000188,-0.00000955,0.00003316,0
 .00000818,0.01204173,-0.00046145,-0.00173147,0.00225084,0.00207535,-0.
 00309763,0.00330424,0.00010938,0.00042070,0.00004729,-0.00005612,-0.00
 004859,-0.00007079,0.00003662,-0.00001867,0.00005804,0.00000710,-0.000
 05279,0.00000460,0.00002731,0.00013548,-0.11845313,-0.01880338,0.09149
 092,0.11680868,-0.00008868,-0.00007109,0.00015678,0.00003318,-0.000058
 09,-0.00006610,-0.00009213,-0.00012488,-0.00021633,0.00017002,0.000093
 42,0.00002098,0.00008555,-0.00023569,-0.00140048,0.00013139,-0.0009018
 0,-0.00000282,0.00026240,-0.00026783,0.00028058,-0.00006782,0.00008404
 ,0.00030288,0.00016154,-0.00013698,-0.00027627,-0.00000540,0.00005208,
 0.00001293,-0.00019409,-0.00031730,-0.00001116,-0.00005209,-0.00006096
 ,0.00019906,0.00004040,-0.00000663,-0.00007788,0.00004238,0.00001527,-
 0.00003884,-0.00004119,-0.00010692,-0.00010714,-0.00000967,0.00003742,
 -0.00001924,0.00003421,0.00006597,0.00005181,-0.00000031,-0.00000581,-
 0.00001994,0.00005201,-0.00000482,0.00000006,-0.00001938,0.00001742,0.
 00000070,-0.03000578,-0.00830455,0.02544188,0.00432671,-0.00488297,0.0
 0382471,0.00111284,0.00176199,-0.00229364,0.00003455,-0.00000326,0.000
 05568,0.00001903,0.00003529,-0.00000758,0.00003976,-0.00000156,-0.0000
 6563,-0.00002375,-0.00005113,0.00004165,-0.02700751,-0.07594325,0.0570
 9657,-0.00899880,0.57462596,-0.00030593,-0.00004498,-0.00032579,0.0000
 3233,0.00008227,0.00012910,0.00016659,0.00005805,0.00029220,-0.0000882
 9,-0.00003624,-0.00010468,-0.00271554,-0.00055236,0.00211956,0.0002931
 6,0.00067035,0.00040518,-0.00024548,0.00013770,0.00020117,-0.00030023,
 -0.00007677,0.00030856,-0.00014251,-0.00030291,0.00006664,0.00002542,0
 .00008350,-0.00000024,0.00018864,0.00025687,-0.00000594,0.00007173,0.0
 0012377,-0.00023911,-0.00004244,-0.00002323,0.00008002,-0.00007111,0.0
 0002515,0.00005598,0.00000315,0.00004001,0.00011573,0.00001290,-0.0000
 1804,0.00002066,-0.00001982,-0.00002015,-0.00005136,-0.00000012,-0.000
 00115,0.00002197,-0.00004342,-0.00000332,0.00000047,0.00000588,0.00000
 178,0.00000396,0.02314573,0.00980600,-0.02774242,-0.00468224,0.0051637
 1,-0.00119140,0.00151805,-0.00248900,0.00246801,0.00002208,-0.00001616
 ,-0.00009589,-0.00003942,-0.00001196,0.00000522,-0.00001630,0.00000252
 ,0.00004469,0.00000691,0.00004937,0.00002451,0.07114020,0.03036045,-0.
 10014066,-0.11527585,0.04621310,0.17085988,-0.00005746,-0.00006636,-0.
 00003488,0.00001215,0.00000466,-0.00002325,-0.00001774,-0.00006551,-0.
 00002565,0.00002679,0.00002910,0.00000848,-0.00042070,0.00012289,-0.00
 037062,0.00024931,0.00000522,0.00016346,-0.00008487,0.00002241,-0.0001
 2800,0.00023106,-0.00011849,-0.00016705,0.00011918,0.00047861,0.000109
 11,-0.00003004,-0.00008379,-0.00002992,-0.00003659,-0.00008486,-0.0000
 4931,-0.00006019,-0.00007990,-0.00004200,0.00000394,0.00003794,0.00001
 803,0.00004589,-0.00006918,-0.00001614,0.00002202,0.00008886,-0.000008
 71,-0.00000264,-0.00002734,0.00001112,-0.00002681,-0.00005100,0.000002
 00,-0.00000193,0.00000994,-0.00000026,0.00000016,0.00001050,0.00000161
 ,0.00001357,-0.00003080,-0.00000666,-0.00336374,0.00084402,0.00089009,
 0.00051912,-0.00041635,0.00028982,0.00023695,0.00043339,-0.00061931,-0
 .00006256,0.00002498,0.00002983,0.00004192,-0.00003296,0.00001475,-0.0
 0004932,0.00000310,0.00005075,0.00001918,0.00000164,-0.00010839,-0.007
 26775,-0.03415773,0.00828757,-0.01787044,0.06006062,0.02735595,0.02781
 153,-0.00008198,-0.00000054,0.00008801,-0.00000576,0.00007562,0.000013
 78,0.00006204,0.00002503,0.00001150,-0.00001597,-0.00003500,-0.0000012
 8,-0.00043598,0.00039713,-0.00025050,0.00014388,0.00006265,-0.00006750
 ,-0.00005756,0.00004738,0.00010674,-0.00011285,-0.00004983,0.00020105,
 -0.00008283,-0.00014654,0.00002437,0.00001633,0.00003202,0.00000677,0.
 00009408,0.00008799,0.00000934,0.00004780,0.00004305,-0.00006103,-0.00
 001302,-0.00000415,0.00001862,-0.00003276,0.00001122,0.00001745,0.0000
 2278,0.00003099,0.00004679,0.00000252,-0.00000887,-0.00000131,-0.00001
 241,-0.00001878,-0.00002446,0.00000357,0.00000177,0.00001186,-0.000026
 82,-0.00000101,-0.00000425,0.00000723,-0.00000110,0.00000145,-0.000512
 90,-0.00229081,0.00139383,0.00009842,0.00012493,0.00000247,-0.00019232
 ,-0.00023947,-0.00012008,0.00000365,-0.00001779,-0.00003706,-0.0000340
 4,-0.00000522,-0.00000434,0.00000202,0.00000424,0.00001833,0.00001609,
 0.00003082,0.00001682,0.00178620,-0.00612335,-0.00077099,0.02620423,-0
 .48530332,-0.08947835,-0.02689364,0.49327093,0.00011587,0.00000367,-0.
 00003342,-0.00001117,-0.00000722,-0.00000091,0.00003639,0.00008550,-0.
 00001781,-0.00005102,-0.00002817,0.00002594,0.00018455,-0.00066849,-0.
 00002439,-0.00001967,-0.00008437,-0.00000454,-0.00001014,-0.00006349,0
 .00004186,-0.00022437,0.00017788,0.00011655,-0.00003464,0.00021239,0.0
 0004937,0.00003373,-0.00002466,0.00000325,-0.00009078,-0.00003956,0.00
 000880,-0.00004798,-0.00004255,0.00007183,0.00000578,0.00001096,-0.000
 02423,0.00003034,-0.00002527,-0.00002264,0.00000890,0.00001167,-0.0000
 4204,-0.00000467,0.00000688,-0.00000777,-0.00000097,-0.00001240,0.0000
 2191,0.00000104,0.00000225,-0.00001219,0.00001186,0.00000303,0.0000000
 9,0.00000361,-0.00000840,-0.00000467,0.00571163,0.00301975,-0.00254224
 ,-0.00078227,0.00100280,-0.00125182,-0.00064907,-0.00010725,-0.0002005
 9,-0.00005136,0.00001024,0.00007145,0.00002009,-0.00000127,-0.00000396
 ,0.00000786,-0.00000361,-0.00002269,0.00001186,-0.00001393,-0.00002938
 ,0.00203947,0.03684797,-0.00414134,0.02935751,-0.12909631,-0.04732600,
 -0.03560240,0.08883198,0.05530157\\-0.00000193,0.00000107,0.00000049,-
 0.00000176,0.00000172,-0.00000046,-0.00000071,0.00000294,0.00000128,-0
 .00000098,0.00000178,0.00000029,0.00000156,0.00000297,-0.00000268,-0.0
 0000024,-0.00000024,-0.00000104,-0.00000118,0.00000098,-0.00000142,-0.
 00000080,0.00000291,0.00000060,0.00000067,0.00000013,0.00000014,0.0000
 0027,-0.00000147,-0.00000053,0.00000119,-0.00000102,0.00000064,-0.0000
 0056,-0.00000073,-0.00000107,-0.00000062,0.00000047,-0.00000092,-0.000
 00112,-0.00000028,-0.00000243,0.00000004,-0.00000169,-0.00000128,0.000
 00037,-0.00000311,-0.00000140,-0.00000039,-0.00000195,-0.00000224,-0.0
 0000081,-0.00000076,-0.00000217,0.00000001,-0.00000314,-0.00000231,-0.
 00000104,-0.00000201,-0.00000338,0.00000018,-0.00000016,-0.00000102,-0
 .00000030,0.00000218,-0.00000029,0.00000093,-0.00000009,0.00000252,0.0
 0000105,-0.00000279,0.00000068,0.00000143,-0.00000294,0.00000037,0.000
 00087,-0.00000054,0.00000067,0.00000135,-0.00000185,0.00000121,0.00000
 294,0.00000598,0.00000461,-0.00000088,-0.00000035,0.00000599,0.0000004
 5,0.00000202,0.00000515\\\@


 WE'RE IN THE POSITION OF A VISITOR FROM ANOTHER
 DIMENSION WHO COMES TO EARTH AND SEES A CHESS MATCH.
 ASSUMING HE KNOWS IT'S A GAME, HE'S GOT TWO PROBLEMS:
 FIRST, FIGURE OUT THE RULES, AND SECOND, FIGURE OUT HOW TO WIN.
 NINETY PERCENT OF SCIENCE (INCLUDING VIRTUALLY ALL OF CHEMISRY)
 IS IN THAT SECOND CATEGORY.  THEY'RE TRYING TO APPLY
 THE LAWS THAT ARE ALREADY KNOWN.

                     -- SHELDON GLASHOW, 1979
 Job cpu time:  0 days  4 hours 58 minutes 51.8 seconds.
 File lengths (MBytes):  RWF=    714 Int=      0 D2E=      0 Chk=     20 Scr=      1
 Normal termination of Gaussian 09 at Thu Feb  6 22:57:44 2014.
