 Entering Gaussian System, Link 0=g09
 Initial command:
 /usr/caen/gaussian-09revc/g09/l1.exe /scratch/avioli_flux/hetanjin/scratch/Gau-4532.inp -scrdir=/scratch/avioli_flux/hetanjin/scratch/
 Entering Link 1 = /usr/caen/gaussian-09revc/g09/l1.exe PID=      4533.
  
 Copyright (c) 1988,1990,1992,1993,1995,1998,2003,2009,2011,
            Gaussian, Inc.  All Rights Reserved.
  
 This is part of the Gaussian(R) 09 program.  It is based on
 the Gaussian(R) 03 system (copyright 2003, Gaussian, Inc.),
 the Gaussian(R) 98 system (copyright 1998, Gaussian, Inc.),
 the Gaussian(R) 94 system (copyright 1995, Gaussian, Inc.),
 the Gaussian 92(TM) system (copyright 1992, Gaussian, Inc.),
 the Gaussian 90(TM) system (copyright 1990, Gaussian, Inc.),
 the Gaussian 88(TM) system (copyright 1988, Gaussian, Inc.),
 the Gaussian 86(TM) system (copyright 1986, Carnegie Mellon
 University), and the Gaussian 82(TM) system (copyright 1983,
 Carnegie Mellon University). Gaussian is a federally registered
 trademark of Gaussian, Inc.
  
 This software contains proprietary and confidential information,
 including trade secrets, belonging to Gaussian, Inc.
  
 This software is provided under written license and may be
 used, copied, transmitted, or stored only in accord with that
 written license.
  
 The following legend is applicable only to US Government
 contracts under FAR:
  
                    RESTRICTED RIGHTS LEGEND
  
 Use, reproduction and disclosure by the US Government is
 subject to restrictions as set forth in subparagraphs (a)
 and (c) of the Commercial Computer Software - Restricted
 Rights clause in FAR 52.227-19.
  
 Gaussian, Inc.
 340 Quinnipiac St., Bldg. 40, Wallingford CT 06492
  
  
 ---------------------------------------------------------------
 Warning -- This program may not be used in any manner that
 competes with the business of Gaussian, Inc. or will provide
 assistance to any competitor of Gaussian, Inc.  The licensee
 of this program is prohibited from giving any competitor of
 Gaussian, Inc. access to this program.  By using this program,
 the user acknowledges that Gaussian, Inc. is engaged in the
 business of creating and licensing software in the field of
 computational chemistry and represents and warrants to the
 licensee that it is not a competitor of Gaussian, Inc. and that
 it will not use this program in any manner prohibited above.
 ---------------------------------------------------------------
  

 Cite this work as:
 Gaussian 09, Revision C.01,
 M. J. Frisch, G. W. Trucks, H. B. Schlegel, G. E. Scuseria, 
 M. A. Robb, J. R. Cheeseman, G. Scalmani, V. Barone, B. Mennucci, 
 G. A. Petersson, H. Nakatsuji, M. Caricato, X. Li, H. P. Hratchian, 
 A. F. Izmaylov, J. Bloino, G. Zheng, J. L. Sonnenberg, M. Hada, 
 M. Ehara, K. Toyota, R. Fukuda, J. Hasegawa, M. Ishida, T. Nakajima, 
 Y. Honda, O. Kitao, H. Nakai, T. Vreven, J. A. Montgomery, Jr., 
 J. E. Peralta, F. Ogliaro, M. Bearpark, J. J. Heyd, E. Brothers, 
 K. N. Kudin, V. N. Staroverov, T. Keith, R. Kobayashi, J. Normand, 
 K. Raghavachari, A. Rendell, J. C. Burant, S. S. Iyengar, J. Tomasi, 
 M. Cossi, N. Rega, J. M. Millam, M. Klene, J. E. Knox, J. B. Cross, 
 V. Bakken, C. Adamo, J. Jaramillo, R. Gomperts, R. E. Stratmann, 
 O. Yazyev, A. J. Austin, R. Cammi, C. Pomelli, J. W. Ochterski, 
 R. L. Martin, K. Morokuma, V. G. Zakrzewski, G. A. Voth, 
 P. Salvador, J. J. Dannenberg, S. Dapprich, A. D. Daniels, 
 O. Farkas, J. B. Foresman, J. V. Ortiz, J. Cioslowski, 
 and D. J. Fox, Gaussian, Inc., Wallingford CT, 2010.
 
 ******************************************
 Gaussian 09:  EM64L-G09RevC.01 23-Sep-2011
                 6-Feb-2014 
 ******************************************
 %mem=30GB
 %nprocshared=8
 Will use up to    8 processors via shared memory.
 %chk=C9H18O_1_26.chk
 -------------------------------------------------
 #p stable=(opt,xqc) b3lyp/6-311++g(d,p) guess=mix
 -------------------------------------------------
 1/38=1/1;
 2/12=2,17=6,18=5,40=1/2;
 3/5=4,6=6,7=1111,11=2,16=1,25=1,30=1,74=-5/1,2,3;
 4/13=-1/1;
 5/5=2,38=5/2;
 6/7=2,8=2,9=2,10=2,28=1/1;
 8/6=1,10=90,11=11/1;
 9/8=-3,42=1,46=1/14;
 5/5=2,8=3,13=1,17=40,38=5/2,8(-2);
 6/7=2,8=2,9=2,10=2,28=1/1;
 99/5=1,9=1/99;
 Leave Link    1 at Thu Feb  6 19:00:32 2014, MaxMem= 4026531840 cpu:       0.6
 (Enter /usr/caen/gaussian-09revc/g09/l101.exe)
 -------------------------------------------------------------
 C9H18O_1_26 using B3LYP/6-311++g(d,p) to do opt and cal. freq
 -------------------------------------------------------------
 Charge =  0 Multiplicity = 1
 Symbolic Z-Matrix:
 C                    -3.17301  -1.66954  -0.19397 
 H                    -2.87617  -2.71161  -0.33638 
 H                    -3.39945  -1.24766  -1.17651 
 H                    -4.09526  -1.66148   0.39469 
 C                    -2.05413  -0.87986   0.50238 
 H                    -1.87109  -1.34161   1.4836 
 C                    -0.73961  -0.93993  -0.29882 
 H                    -0.55589  -1.99184  -0.54858 
 H                    -0.8744   -0.42299  -1.25598 
 C                     0.49652  -0.37953   0.41648 
 H                     0.59872  -0.86202   1.39833 
 H                     0.35867   0.68881   0.60351 
 C                     1.78599  -0.59801  -0.38576 
 H                     1.69941  -0.08941  -1.35556 
 H                     1.88007  -1.66787  -0.61185 
 C                     3.08034  -0.13145   0.30742 
 H                     3.12047  -0.61431   1.29398 
 C                     4.31064  -0.59099  -0.48791 
 H                     4.31678  -0.14434  -1.48839 
 H                     5.23878  -0.29712   0.0113 
 H                     4.3251   -1.67831  -0.60927 
 C                    -2.50965   0.54486   0.83292 
 H                    -1.74913   1.12829   1.35099 
 C                     3.11823   1.38842   0.52354 
 H                     4.04969   1.68942   1.01217 
 H                     3.05973   1.91767  -0.43412 
 H                     2.29233   1.73843   1.1474 
 O                    -2.81999   1.18713  -0.20378 
 
 NAtoms=     28 NQM=        0 NQMF=       0 NMMI=     28 NMMIF=      0
                NMic=       0 NMicF=      0.
                    Isotopes and Nuclear Properties:
 (Nuclear quadrupole moments (NQMom) in fm**2, nuclear magnetic moments (NMagM)
  in nuclear magnetons)

  Atom         1           2           3           4           5           6           7           8           9          10
 IAtWgt=          12           1           1           1          12           1          12           1           1          12
 AtmWgt=  12.0000000   1.0078250   1.0078250   1.0078250  12.0000000   1.0078250  12.0000000   1.0078250   1.0078250  12.0000000
 NucSpn=           0           1           1           1           0           1           0           1           1           0
 AtZEff=   0.0000000   0.0000000   0.0000000   0.0000000   0.0000000   0.0000000   0.0000000   0.0000000   0.0000000   0.0000000
 NQMom=    0.0000000   0.0000000   0.0000000   0.0000000   0.0000000   0.0000000   0.0000000   0.0000000   0.0000000   0.0000000
 NMagM=    0.0000000   2.7928460   2.7928460   2.7928460   0.0000000   2.7928460   0.0000000   2.7928460   2.7928460   0.0000000

  Atom        11          12          13          14          15          16          17          18          19          20
 IAtWgt=           1           1          12           1           1          12           1          12           1           1
 AtmWgt=   1.0078250   1.0078250  12.0000000   1.0078250   1.0078250  12.0000000   1.0078250  12.0000000   1.0078250   1.0078250
 NucSpn=           1           1           0           1           1           0           1           0           1           1
 AtZEff=   0.0000000   0.0000000   0.0000000   0.0000000   0.0000000   0.0000000   0.0000000   0.0000000   0.0000000   0.0000000
 NQMom=    0.0000000   0.0000000   0.0000000   0.0000000   0.0000000   0.0000000   0.0000000   0.0000000   0.0000000   0.0000000
 NMagM=    2.7928460   2.7928460   0.0000000   2.7928460   2.7928460   0.0000000   2.7928460   0.0000000   2.7928460   2.7928460

  Atom        21          22          23          24          25          26          27          28
 IAtWgt=           1          12           1          12           1           1           1          16
 AtmWgt=   1.0078250  12.0000000   1.0078250  12.0000000   1.0078250   1.0078250   1.0078250  15.9949146
 NucSpn=           1           0           1           0           1           1           1           0
 AtZEff=   0.0000000   0.0000000   0.0000000   0.0000000   0.0000000   0.0000000   0.0000000   0.0000000
 NQMom=    0.0000000   0.0000000   0.0000000   0.0000000   0.0000000   0.0000000   0.0000000   0.0000000
 NMagM=    2.7928460   0.0000000   2.7928460   0.0000000   2.7928460   2.7928460   2.7928460   0.0000000
 Leave Link  101 at Thu Feb  6 19:00:32 2014, MaxMem= 4026531840 cpu:       0.6
 (Enter /usr/caen/gaussian-09revc/g09/l202.exe)
                          Input orientation:                          
 ---------------------------------------------------------------------
 Center     Atomic      Atomic             Coordinates (Angstroms)
 Number     Number       Type             X           Y           Z
 ---------------------------------------------------------------------
      1          6           0       -3.173014   -1.669538   -0.193965
      2          1           0       -2.876169   -2.711612   -0.336378
      3          1           0       -3.399449   -1.247661   -1.176513
      4          1           0       -4.095257   -1.661481    0.394692
      5          6           0       -2.054134   -0.879861    0.502380
      6          1           0       -1.871088   -1.341605    1.483598
      7          6           0       -0.739611   -0.939929   -0.298821
      8          1           0       -0.555894   -1.991835   -0.548576
      9          1           0       -0.874402   -0.422986   -1.255980
     10          6           0        0.496519   -0.379528    0.416475
     11          1           0        0.598724   -0.862021    1.398330
     12          1           0        0.358666    0.688807    0.603514
     13          6           0        1.785988   -0.598005   -0.385763
     14          1           0        1.699407   -0.089406   -1.355555
     15          1           0        1.880069   -1.667866   -0.611848
     16          6           0        3.080336   -0.131454    0.307420
     17          1           0        3.120467   -0.614312    1.293978
     18          6           0        4.310638   -0.590989   -0.487909
     19          1           0        4.316782   -0.144337   -1.488392
     20          1           0        5.238775   -0.297116    0.011302
     21          1           0        4.325105   -1.678305   -0.609266
     22          6           0       -2.509649    0.544864    0.832923
     23          1           0       -1.749127    1.128289    1.350988
     24          6           0        3.118227    1.388421    0.523541
     25          1           0        4.049695    1.689416    1.012167
     26          1           0        3.059733    1.917672   -0.434118
     27          1           0        2.292328    1.738431    1.147402
     28          8           0       -2.819985    1.187131   -0.203781
 ---------------------------------------------------------------------
                    Distance matrix (angstroms):
                    1          2          3          4          5
     1  C    0.000000
     2  H    1.092848   0.000000
     3  H    1.093002   1.767145   0.000000
     4  H    1.094127   1.767318   1.767507   0.000000
     5  C    1.536352   2.175906   2.182620   2.188312   0.000000
     6  H    2.148667   2.489863   3.069349   2.496991   1.099774
     7  C    2.542592   2.775815   2.817762   3.501708   1.540617
     8  H    2.660628   2.438603   3.005645   3.677768   2.141429
     9  H    2.822301   3.176562   2.657492   3.825244   2.166179
    10  C    3.937288   4.168984   4.297654   4.767419   2.600681
    11  H    4.172948   4.301753   4.771155   4.866198   2.800125
    12  H    4.320941   4.786481   4.587138   5.040326   2.879679
    13  C    5.077073   5.119129   5.285461   6.027365   3.951554
    14  H    5.252294   5.371274   5.231820   6.254032   4.262137
    15  H    5.070333   4.877201   5.326230   6.059512   4.164182
    16  C    6.459216   6.523162   6.740593   7.337420   5.192389
    17  H    6.552509   6.558687   7.000983   7.346560   5.241530
    18  C    7.566685   7.494678   7.768580   8.519625   6.447825
    19  H    7.752343   7.723767   7.800950   8.752721   6.715113
    20  H    8.525484   8.473664   8.771166   9.441008   7.332617
    21  H    7.509617   7.280147   7.757316   8.480018   6.524413
    22  C    2.529452   3.479402   2.835969   2.752119   1.531860
    23  H    3.498881   4.343071   3.841479   3.768507   2.201325
    24  C    7.031759   7.313174   7.233202   7.832806   5.647908
    25  H    8.056355   8.315961   8.300993   8.828931   6.642123
    26  H    7.195338   7.528264   7.231287   8.043081   5.903800
    27  H    6.579018   6.979817   6.834739   7.275109   5.115001
    28  O    2.878417   3.901402   2.685181   3.177905   2.314659
                    6          7          8          9         10
     6  H    0.000000
     7  C    2.149093   0.000000
     8  H    2.506445   1.096647   0.000000
     9  H    3.056555   1.096153   1.750187   0.000000
    10  C    2.769460   1.534182   2.153702   2.162965   0.000000
    11  H    2.517388   2.162760   2.529835   3.067281   1.098765
    12  H    3.141484   2.161759   3.057707   2.492841   1.093310
    13  C    4.173926   2.550122   2.730143   2.804565   1.534291
    14  H    4.730457   2.790857   3.058894   2.597245   2.161296
    15  H    4.309120   2.736896   2.458226   3.090589   2.152086
    16  C    5.231105   3.951349   4.173238   4.262530   2.597988
    17  H    5.047824   4.188465   4.336843   4.743192   2.776732
    18  C    6.531769   5.065820   5.064502   5.244311   3.925574
    19  H    6.968207   5.255012   5.295231   5.203850   4.275306
    20  H    7.335446   6.020837   6.063310   6.244420   4.760247
    21  H    6.548760   5.127663   4.891435   5.387851   4.170976
    22  C    2.095210   2.572642   3.487197   2.823877   3.172535
    23  H    2.476456   2.831699   3.842827   3.157195   2.861774
    24  C    5.767843   4.580437   5.106342   4.731699   3.163931
    25  H    6.668209   5.618683   6.099096   5.818373   4.154568
    26  H    6.213978   4.755965   5.326359   4.650974   3.545519
    27  H    5.189767   4.296257   4.990350   4.525058   2.871399
    28  O    3.184676   2.976806   3.918012   2.735854   3.719992
                   11         12         13         14         15
    11  H    0.000000
    12  H    1.759099   0.000000
    13  C    2.159233   2.161435   0.000000
    14  H    3.064689   2.498230   1.098483   0.000000
    15  H    2.516356   3.057070   1.097528   1.754216   0.000000
    16  C    2.807528   2.857969   1.540620   2.161994   2.155518
    17  H    2.536028   3.130879   2.145374   3.052042   2.506140
    18  C    4.172489   4.295016   2.526725   2.796949   2.661332
    19  H    4.761532   4.553777   2.797592   2.621319   3.004503
    20  H    4.875760   5.013803   3.488543   3.799811   3.680785
    21  H    4.310763   4.775635   2.768414   3.158455   2.445060
    22  C    3.458467   2.881073   4.609104   4.786218   5.123784
    23  H    3.078308   2.279178   4.300399   4.549785   4.984202
    24  C    3.489648   2.847987   2.558824   2.779932   3.487554
    25  H    4.309078   3.846025   3.508685   3.780763   4.314631
    26  H    4.140184   3.143653   2.820176   2.593819   3.778793
    27  H    3.113456   2.266401   2.840054   3.155525   3.855876
    28  O    4.295737   3.317209   4.943159   4.835394   5.514348
                   16         17         18         19         20
    16  C    0.000000
    17  H    1.099117   0.000000
    18  C    1.535371   2.142935   0.000000
    19  H    2.180345   3.064903   1.095674   0.000000
    20  H    2.184946   2.496618   1.094080   1.767058   0.000000
    21  H    2.186895   2.491098   1.094163   1.768047   1.768497
    22  C    5.655218   5.766669   7.039252   7.243180   7.837223
    23  H    5.098990   5.172316   6.561876   6.817397   7.256536
    24  C    1.535631   2.145814   2.522487   2.798885   2.756837
    25  H    2.179884   2.500009   2.742000   3.112359   2.522291
    26  H    2.179271   3.066096   2.803754   2.635061   3.138775
    27  H    2.196132   2.498539   3.489128   3.819770   3.757090
    28  O    6.067437   6.385723   7.354470   7.372685   8.197126
                   21         22         23         24         25
    21  H    0.000000
    22  C    7.330501   0.000000
    23  H    6.972507   1.089573   0.000000
    24  C    3.484912   5.699149   4.944034   0.000000
    25  H    3.747858   6.660865   5.835752   1.094069   0.000000
    26  H    3.816136   5.874352   5.189881   1.095737   1.767446
    27  H    4.346510   4.958072   4.092320   1.092620   1.763244
    28  O    7.708921   1.258400   1.888784   5.985974   6.994521
                   26         27         28
    26  H    0.000000
    27  H    1.766987   0.000000
    28  O    5.929404   5.316519   0.000000
 Stoichiometry    C9H18O
 Framework group  C1[X(C9H18O)]
 Deg. of freedom    78
 Full point group                 C1      NOp   1
 Largest Abelian subgroup         C1      NOp   1
 Largest concise Abelian subgroup C1      NOp   1
                         Standard orientation:                         
 ---------------------------------------------------------------------
 Center     Atomic      Atomic             Coordinates (Angstroms)
 Number     Number       Type             X           Y           Z
 ---------------------------------------------------------------------
      1          6           0        3.503574   -1.233141    0.012041
      2          1           0        3.284901   -2.292156   -0.146032
      3          1           0        3.676268   -1.081837    1.080656
      4          1           0        4.434571   -1.001282   -0.513887
      5          6           0        2.342044   -0.361411   -0.489269
      6          1           0        2.215642   -0.548362   -1.565639
      7          6           0        1.019575   -0.728146    0.210790
      8          1           0        0.912181   -1.818241    0.157921
      9          1           0        1.094131   -0.484951    1.277022
     10          6           0       -0.240789   -0.079206   -0.375788
     11          1           0       -0.284997   -0.280364   -1.455077
     12          1           0       -0.181689    1.006352   -0.260039
     13          6           0       -1.526113   -0.596489    0.283309
     14          1           0       -1.499236   -0.368050    1.357441
     15          1           0       -1.542279   -1.691206    0.206493
     16          6           0       -2.837749   -0.047617   -0.309870
     17          1           0       -2.819954   -0.243597   -1.391228
     18          6           0       -4.045397   -0.790234    0.279596
     19          1           0       -4.106823   -0.635963    1.362614
     20          1           0       -4.982754   -0.435091   -0.158862
     21          1           0       -3.978669   -1.867594    0.100612
     22          6           0        2.693365    1.127046   -0.401727
     23          1           0        1.901197    1.776596   -0.772839
     24          6           0       -2.987978    1.467093   -0.106772
     25          1           0       -3.929426    1.825944   -0.533256
     26          1           0       -2.990435    1.716746    0.960142
     27          1           0       -2.178602    2.030070   -0.577713
     28          8           0        2.931597    1.480701    0.782226
 ---------------------------------------------------------------------
 Rotational constants (GHZ):      2.7651108      0.4727274      0.4280539
 Leave Link  202 at Thu Feb  6 19:00:33 2014, MaxMem= 4026531840 cpu:       0.5
 (Enter /usr/caen/gaussian-09revc/g09/l301.exe)
 Standard basis: 6-311++G(d,p) (5D, 7F)
 Ernie: Thresh=  0.10000D-02 Tol=  0.10000D-05 Strict=F.
 There are   346 symmetry adapted basis functions of A   symmetry.
 Integral buffers will be    131072 words long.
 Raffenetti 2 integral format.
 Two-electron integral symmetry is turned on.
   346 basis functions,   522 primitive gaussians,   356 cartesian basis functions
    40 alpha electrons       40 beta electrons
       nuclear repulsion energy       537.2819817928 Hartrees.
 IExCor=  402 DFT=T Ex+Corr=B3LYP ExCW=0 ScaHFX=  0.200000
 ScaDFX=  0.800000  0.720000  1.000000  0.810000 ScalE2=  1.000000  1.000000
 IRadAn=      0 IRanWt=     -1 IRanGd=            0 ICorTp=0
 NAtoms=   28 NActive=   28 NUniq=   28 SFac= 1.00D+00 NAtFMM=   60 NAOKFM=F Big=F
 Leave Link  301 at Thu Feb  6 19:00:33 2014, MaxMem= 4026531840 cpu:       0.6
 (Enter /usr/caen/gaussian-09revc/g09/l302.exe)
 NPDir=0 NMtPBC=     1 NCelOv=     1 NCel=       1 NClECP=     1 NCelD=      1
         NCelK=      1 NCelE2=     1 NClLst=     1 CellRange=     0.0.
 One-electron integrals computed using PRISM.
 NBasis=   346 RedAO= T  NBF=   346
 NBsUse=   346 1.00D-06 NBFU=   346
 Precomputing XC quadrature grid using
 IXCGrd= 2 IRadAn=           0 IRanWt=          -1 IRanGd=           0 AccXCQ= 0.00D+00.
 NRdTot=    1828 NPtTot=      233178 NUsed=      246351 NTot=      246383
 NSgBfM=   356   356   356   356   356 NAtAll=    28    28.
 Leave Link  302 at Thu Feb  6 19:00:35 2014, MaxMem= 4026531840 cpu:       8.6
 (Enter /usr/caen/gaussian-09revc/g09/l303.exe)
 DipDrv:  MaxL=1.
 Leave Link  303 at Thu Feb  6 19:00:36 2014, MaxMem= 4026531840 cpu:       2.1
 (Enter /usr/caen/gaussian-09revc/g09/l401.exe)
 Harris functional with IExCor=  402 diagonalized for initial guess.
 ExpMin= 3.60D-02 ExpMax= 8.59D+03 ExpMxC= 1.30D+03 IAcc=3 IRadAn=         5 AccDes= 0.00D+00
 HarFok:  IExCor=  402 AccDes= 0.00D+00 IRadAn=         5 IDoV= 1
 ScaDFX=  1.000000  1.000000  1.000000  1.000000
 FoFCou: FMM=F IPFlag=           0 FMFlag=      100000 FMFlg1=           0
         NFxFlg=           0 DoJE=T BraDBF=F KetDBF=T FulRan=T
         Omega=  0.000000  0.000000  1.000000  0.000000  0.000000 ICntrl=     500 IOpCl=  0
         NMat0=    1 NMatS0=    1 NMatT0=    0 NMatD0=    1 NMtDS0=    0 NMtDT0=    0
         I1Cent=           4 NGrid=           0.
 Petite list used in FoFCou.
 Harris En= -429.183944806245    
 Mixing orbitals, IMix= 1 IMixAn=  0 NRI=1 NE=   40 Coef=  7.07106781D-01  7.07106781D-01
 Initial guess orbital symmetries:
       Occupied  (A) (A) (A) (A) (A) (A) (A) (A) (A) (A) (A) (A)
                 (A) (A) (A) (A) (A) (A) (A) (A) (A) (A) (A) (A)
                 (A) (A) (A) (A) (A) (A) (A) (A) (A) (A) (A) (A)
                 (A) (A) (A) (A)
       Virtual   (A) (A) (A) (A) (A) (A) (A) (A) (A) (A) (A) (A)
                 (A) (A) (A) (A) (A) (A) (A) (A) (A) (A) (A) (A)
                 (A) (A) (A) (A) (A) (A) (A) (A) (A) (A) (A) (A)
                 (A) (A) (A) (A) (A) (A) (A) (A) (A) (A) (A) (A)
                 (A) (A) (A) (A) (A) (A) (A) (A) (A) (A) (A) (A)
                 (A) (A) (A) (A) (A) (A) (A) (A) (A) (A) (A) (A)
                 (A) (A) (A) (A) (A) (A) (A) (A) (A) (A) (A) (A)
                 (A) (A) (A) (A) (A) (A) (A) (A) (A) (A) (A) (A)
                 (A) (A) (A) (A) (A) (A) (A) (A) (A) (A) (A) (A)
                 (A) (A) (A) (A) (A) (A) (A) (A) (A) (A) (A) (A)
                 (A) (A) (A) (A) (A) (A) (A) (A) (A) (A) (A) (A)
                 (A) (A) (A) (A) (A) (A) (A) (A) (A) (A) (A) (A)
                 (A) (A) (A) (A) (A) (A) (A) (A) (A) (A) (A) (A)
                 (A) (A) (A) (A) (A) (A) (A) (A) (A) (A) (A) (A)
                 (A) (A) (A) (A) (A) (A) (A) (A) (A) (A) (A) (A)
                 (A) (A) (A) (A) (A) (A) (A) (A) (A) (A) (A) (A)
                 (A) (A) (A) (A) (A) (A) (A) (A) (A) (A) (A) (A)
                 (A) (A) (A) (A) (A) (A) (A) (A) (A) (A) (A) (A)
                 (A) (A) (A) (A) (A) (A) (A) (A) (A) (A) (A) (A)
                 (A) (A) (A) (A) (A) (A) (A) (A) (A) (A) (A) (A)
                 (A) (A) (A) (A) (A) (A) (A) (A) (A) (A) (A) (A)
                 (A) (A) (A) (A) (A) (A) (A) (A) (A) (A) (A) (A)
                 (A) (A) (A) (A) (A) (A) (A) (A) (A) (A) (A) (A)
                 (A) (A) (A) (A) (A) (A) (A) (A) (A) (A) (A) (A)
                 (A) (A) (A) (A) (A) (A) (A) (A) (A) (A) (A) (A)
                 (A) (A) (A) (A) (A) (A)
 The electronic state of the initial guess is 1-A.
 Leave Link  401 at Thu Feb  6 19:00:39 2014, MaxMem= 4026531840 cpu:      24.7
 (Enter /usr/caen/gaussian-09revc/g09/l502.exe)
 Closed shell SCF:
 Requested convergence on RMS density matrix=1.00D-08 within 128 cycles.
 Requested convergence on MAX density matrix=1.00D-06.
 Requested convergence on             energy=1.00D-06.
 No special actions if energy rises.
 Using DIIS extrapolation, IDIIS=  1040.
 Integral symmetry usage will be decided dynamically.
       246086 words used for storage of precomputed grid.
 Keep R1 ints in memory in canonical form, NReq=2042478289.
 IEnd=      649976 IEndB=      649976 NGot=  4026531840 MDV=  2006946738
 LenX=  2006946738 LenY=  2006819561
 Symmetry not used in FoFDir.
 MinBra= 0 MaxBra= 2 Meth= 1.
 IRaf=       0 NMat=   1 IRICut=       1 DoRegI=T DoRafI=F ISym2E= 0 JSym2E=0.

 Cycle   1  Pass 1  IDiag  1:
 E= -428.640210637499    
 DIIS: error= 3.94D-02 at cycle   1 NSaved=   1.
 NSaved= 1 IEnMin= 1 EnMin= -428.640210637499     IErMin= 1 ErrMin= 3.94D-02
 ErrMax= 3.94D-02 EMaxC= 1.00D-01 BMatC= 3.46D-01 BMatP= 3.46D-01
 IDIUse=3 WtCom= 6.06D-01 WtEn= 3.94D-01
 Coeff-Com:  0.100D+01
 Coeff-En:   0.100D+01
 Coeff:      0.100D+01
 Gap=     0.067 Goal=   None    Shift=    0.000
 GapD=    0.067 DampG=0.500 DampE=0.500 DampFc=0.2500 IDamp=-1.
 Damping current iteration by 2.50D-01
 RMSDP=1.68D-02 MaxDP=1.99D+00              OVMax= 4.68D-01

 Cycle   2  Pass 1  IDiag  1:
 E= -428.787592370165     Delta-E=       -0.147381732665 Rises=F Damp=T
 DIIS: error= 1.73D-02 at cycle   2 NSaved=   2.
 NSaved= 2 IEnMin= 2 EnMin= -428.787592370165     IErMin= 2 ErrMin= 1.73D-02
 ErrMax= 1.73D-02 EMaxC= 1.00D-01 BMatC= 8.95D-02 BMatP= 3.46D-01
 IDIUse=3 WtCom= 8.27D-01 WtEn= 1.73D-01
 Coeff-Com: -0.841D+00 0.184D+01
 Coeff-En:   0.000D+00 0.100D+01
 Coeff:     -0.696D+00 0.170D+01
 Gap=     0.225 Goal=   None    Shift=    0.000
 RMSDP=7.04D-03 MaxDP=8.42D-01 DE=-1.47D-01 OVMax= 1.21D-01

 Cycle   3  Pass 1  IDiag  1:
 E= -429.085285524951     Delta-E=       -0.297693154786 Rises=F Damp=F
 DIIS: error= 7.82D-03 at cycle   3 NSaved=   3.
 NSaved= 3 IEnMin= 3 EnMin= -429.085285524951     IErMin= 3 ErrMin= 7.82D-03
 ErrMax= 7.82D-03 EMaxC= 1.00D-01 BMatC= 1.39D-02 BMatP= 8.95D-02
 IDIUse=3 WtCom= 9.22D-01 WtEn= 7.82D-02
 Coeff-Com: -0.320D+00 0.739D+00 0.581D+00
 Coeff-En:   0.000D+00 0.000D+00 0.100D+01
 Coeff:     -0.295D+00 0.681D+00 0.613D+00
 Gap=     0.159 Goal=   None    Shift=    0.000
 RMSDP=1.25D-03 MaxDP=7.46D-02 DE=-2.98D-01 OVMax= 8.27D-02

 Cycle   4  Pass 1  IDiag  1:
 E= -429.088789264695     Delta-E=       -0.003503739744 Rises=F Damp=F
 DIIS: error= 7.40D-03 at cycle   4 NSaved=   4.
 NSaved= 4 IEnMin= 4 EnMin= -429.088789264695     IErMin= 4 ErrMin= 7.40D-03
 ErrMax= 7.40D-03 EMaxC= 1.00D-01 BMatC= 1.31D-02 BMatP= 1.39D-02
 IDIUse=3 WtCom= 9.26D-01 WtEn= 7.40D-02
 Coeff-Com: -0.224D-01 0.731D-01 0.486D+00 0.464D+00
 Coeff-En:   0.000D+00 0.000D+00 0.429D+00 0.571D+00
 Coeff:     -0.207D-01 0.677D-01 0.481D+00 0.472D+00
 Gap=     0.156 Goal=   None    Shift=    0.000
 RMSDP=9.83D-04 MaxDP=7.20D-02 DE=-3.50D-03 OVMax= 3.92D-02

 Cycle   5  Pass 1  IDiag  1:
 E= -429.099360836447     Delta-E=       -0.010571571753 Rises=F Damp=F
 DIIS: error= 1.71D-03 at cycle   5 NSaved=   5.
 NSaved= 5 IEnMin= 5 EnMin= -429.099360836447     IErMin= 5 ErrMin= 1.71D-03
 ErrMax= 1.71D-03 EMaxC= 1.00D-01 BMatC= 9.00D-04 BMatP= 1.31D-02
 IDIUse=3 WtCom= 9.83D-01 WtEn= 1.71D-02
 Coeff-Com:  0.541D-02-0.900D-02 0.129D+00 0.246D+00 0.629D+00
 Coeff-En:   0.000D+00 0.000D+00 0.000D+00 0.000D+00 0.100D+01
 Coeff:      0.532D-02-0.885D-02 0.127D+00 0.242D+00 0.635D+00
 Gap=     0.163 Goal=   None    Shift=    0.000
 RMSDP=4.35D-04 MaxDP=4.41D-02 DE=-1.06D-02 OVMax= 2.56D-02

 Cycle   6  Pass 1  IDiag  1:
 E= -429.100444673044     Delta-E=       -0.001083836596 Rises=F Damp=F
 DIIS: error= 4.59D-04 at cycle   6 NSaved=   6.
 NSaved= 6 IEnMin= 6 EnMin= -429.100444673044     IErMin= 6 ErrMin= 4.59D-04
 ErrMax= 4.59D-04 EMaxC= 1.00D-01 BMatC= 1.15D-04 BMatP= 9.00D-04
 IDIUse=3 WtCom= 9.95D-01 WtEn= 4.59D-03
 Coeff-Com:  0.339D-02-0.140D-01-0.556D-01 0.431D-02 0.282D+00 0.780D+00
 Coeff-En:   0.000D+00 0.000D+00 0.000D+00 0.000D+00 0.000D+00 0.100D+01
 Coeff:      0.337D-02-0.140D-01-0.553D-01 0.429D-02 0.281D+00 0.781D+00
 Gap=     0.164 Goal=   None    Shift=    0.000
 RMSDP=1.94D-04 MaxDP=1.26D-02 DE=-1.08D-03 OVMax= 1.81D-02

 Cycle   7  Pass 1  IDiag  1:
 E= -429.100683409073     Delta-E=       -0.000238736029 Rises=F Damp=F
 DIIS: error= 1.57D-04 at cycle   7 NSaved=   7.
 NSaved= 7 IEnMin= 7 EnMin= -429.100683409073     IErMin= 7 ErrMin= 1.57D-04
 ErrMax= 1.57D-04 EMaxC= 1.00D-01 BMatC= 9.52D-06 BMatP= 1.15D-04
 IDIUse=3 WtCom= 9.98D-01 WtEn= 1.57D-03
 Coeff-Com: -0.354D-02 0.419D-02-0.292D-01-0.261D-01-0.180D-01 0.218D+00
 Coeff-Com:  0.855D+00
 Coeff-En:   0.000D+00 0.000D+00 0.000D+00 0.000D+00 0.000D+00 0.000D+00
 Coeff-En:   0.100D+01
 Coeff:     -0.353D-02 0.419D-02-0.292D-01-0.260D-01-0.180D-01 0.217D+00
 Coeff:      0.855D+00
 Gap=     0.163 Goal=   None    Shift=    0.000
 RMSDP=9.20D-05 MaxDP=9.39D-03 DE=-2.39D-04 OVMax= 6.62D-03

 Cycle   8  Pass 1  IDiag  1:
 E= -429.100705448096     Delta-E=       -0.000022039023 Rises=F Damp=F
 DIIS: error= 4.15D-05 at cycle   8 NSaved=   8.
 NSaved= 8 IEnMin= 8 EnMin= -429.100705448096     IErMin= 8 ErrMin= 4.15D-05
 ErrMax= 4.15D-05 EMaxC= 1.00D-01 BMatC= 1.30D-06 BMatP= 9.52D-06
 IDIUse=1 WtCom= 1.00D+00 WtEn= 0.00D+00
 Coeff-Com: -0.203D-02 0.348D-02-0.470D-02-0.815D-02-0.354D-01 0.162D-02
 Coeff-Com:  0.321D+00 0.724D+00
 Coeff:     -0.203D-02 0.348D-02-0.470D-02-0.815D-02-0.354D-01 0.162D-02
 Coeff:      0.321D+00 0.724D+00
 Gap=     0.163 Goal=   None    Shift=    0.000
 RMSDP=2.28D-05 MaxDP=1.26D-03 DE=-2.20D-05 OVMax= 1.50D-03

 Cycle   9  Pass 1  IDiag  1:
 E= -429.100707452839     Delta-E=       -0.000002004743 Rises=F Damp=F
 DIIS: error= 1.55D-05 at cycle   9 NSaved=   9.
 NSaved= 9 IEnMin= 9 EnMin= -429.100707452839     IErMin= 9 ErrMin= 1.55D-05
 ErrMax= 1.55D-05 EMaxC= 1.00D-01 BMatC= 1.36D-07 BMatP= 1.30D-06
 IDIUse=1 WtCom= 1.00D+00 WtEn= 0.00D+00
 Coeff-Com: -0.411D-04 0.988D-04 0.133D-02-0.336D-03-0.897D-02-0.252D-01
 Coeff-Com:  0.981D-02 0.265D+00 0.758D+00
 Coeff:     -0.411D-04 0.988D-04 0.133D-02-0.336D-03-0.897D-02-0.252D-01
 Coeff:      0.981D-02 0.265D+00 0.758D+00
 Gap=     0.163 Goal=   None    Shift=    0.000
 RMSDP=5.68D-06 MaxDP=3.48D-04 DE=-2.00D-06 OVMax= 4.89D-04

 Cycle  10  Pass 1  IDiag  1:
 E= -429.100707628303     Delta-E=       -0.000000175464 Rises=F Damp=F
 DIIS: error= 5.51D-06 at cycle  10 NSaved=  10.
 NSaved=10 IEnMin=10 EnMin= -429.100707628303     IErMin=10 ErrMin= 5.51D-06
 ErrMax= 5.51D-06 EMaxC= 1.00D-01 BMatC= 1.51D-08 BMatP= 1.36D-07
 IDIUse=1 WtCom= 1.00D+00 WtEn= 0.00D+00
 Coeff-Com:  0.691D-04-0.816D-04 0.854D-03 0.166D-03-0.213D-02-0.117D-01
 Coeff-Com: -0.113D-01 0.909D-01 0.360D+00 0.573D+00
 Coeff:      0.691D-04-0.816D-04 0.854D-03 0.166D-03-0.213D-02-0.117D-01
 Coeff:     -0.113D-01 0.909D-01 0.360D+00 0.573D+00
 Gap=     0.163 Goal=   None    Shift=    0.000
 RMSDP=1.78D-06 MaxDP=1.51D-04 DE=-1.75D-07 OVMax= 4.36D-05

 Cycle  11  Pass 1  IDiag  1:
 E= -429.100707643223     Delta-E=       -0.000000014920 Rises=F Damp=F
 DIIS: error= 1.81D-06 at cycle  11 NSaved=  11.
 NSaved=11 IEnMin=11 EnMin= -429.100707643223     IErMin=11 ErrMin= 1.81D-06
 ErrMax= 1.81D-06 EMaxC= 1.00D-01 BMatC= 9.47D-10 BMatP= 1.51D-08
 IDIUse=1 WtCom= 1.00D+00 WtEn= 0.00D+00
 Coeff-Com:  0.486D-04-0.703D-04 0.220D-03 0.482D-04-0.805D-04-0.291D-02
 Coeff-Com: -0.582D-02 0.166D-01 0.849D-01 0.239D+00 0.668D+00
 Coeff:      0.486D-04-0.703D-04 0.220D-03 0.482D-04-0.805D-04-0.291D-02
 Coeff:     -0.582D-02 0.166D-01 0.849D-01 0.239D+00 0.668D+00
 Gap=     0.163 Goal=   None    Shift=    0.000
 RMSDP=8.46D-07 MaxDP=1.51D-04 DE=-1.49D-08 OVMax= 1.03D-05

 Cycle  12  Pass 1  IDiag  1:
 E= -429.100707644090     Delta-E=       -0.000000000867 Rises=F Damp=F
 DIIS: error= 4.63D-07 at cycle  12 NSaved=  12.
 NSaved=12 IEnMin=12 EnMin= -429.100707644090     IErMin=12 ErrMin= 4.63D-07
 ErrMax= 4.63D-07 EMaxC= 1.00D-01 BMatC= 1.16D-10 BMatP= 9.47D-10
 IDIUse=1 WtCom= 1.00D+00 WtEn= 0.00D+00
 Coeff-Com:  0.141D-04-0.201D-04 0.112D-04-0.256D-05 0.235D-03-0.416D-04
 Coeff-Com: -0.128D-02-0.163D-02-0.487D-03 0.486D-01 0.312D+00 0.643D+00
 Coeff:      0.141D-04-0.201D-04 0.112D-04-0.256D-05 0.235D-03-0.416D-04
 Coeff:     -0.128D-02-0.163D-02-0.487D-03 0.486D-01 0.312D+00 0.643D+00
 Gap=     0.163 Goal=   None    Shift=    0.000
 RMSDP=2.24D-07 MaxDP=3.74D-05 DE=-8.67D-10 OVMax= 2.04D-06

 Cycle  13  Pass 1  IDiag  1:
 E= -429.100707644199     Delta-E=       -0.000000000109 Rises=F Damp=F
 DIIS: error= 1.05D-07 at cycle  13 NSaved=  13.
 NSaved=13 IEnMin=13 EnMin= -429.100707644199     IErMin=13 ErrMin= 1.05D-07
 ErrMax= 1.05D-07 EMaxC= 1.00D-01 BMatC= 4.59D-12 BMatP= 1.16D-10
 IDIUse=1 WtCom= 1.00D+00 WtEn= 0.00D+00
 Coeff-Com:  0.181D-05-0.244D-05-0.100D-04-0.873D-05 0.954D-04 0.172D-03
 Coeff-Com: -0.989D-04-0.176D-02-0.640D-02-0.464D-03 0.591D-01 0.205D+00
 Coeff-Com:  0.745D+00
 Coeff:      0.181D-05-0.244D-05-0.100D-04-0.873D-05 0.954D-04 0.172D-03
 Coeff:     -0.989D-04-0.176D-02-0.640D-02-0.464D-03 0.591D-01 0.205D+00
 Coeff:      0.745D+00
 Gap=     0.163 Goal=   None    Shift=    0.000
 RMSDP=3.53D-08 MaxDP=3.75D-06 DE=-1.09D-10 OVMax= 6.59D-07

 Cycle  14  Pass 1  IDiag  1:
 E= -429.100707644204     Delta-E=       -0.000000000004 Rises=F Damp=F
 DIIS: error= 3.06D-08 at cycle  14 NSaved=  14.
 NSaved=14 IEnMin=14 EnMin= -429.100707644204     IErMin=14 ErrMin= 3.06D-08
 ErrMax= 3.06D-08 EMaxC= 1.00D-01 BMatC= 2.67D-13 BMatP= 4.59D-12
 IDIUse=1 WtCom= 1.00D+00 WtEn= 0.00D+00
 Coeff-Com: -0.229D-06 0.373D-06-0.311D-05-0.378D-05 0.190D-04 0.517D-04
 Coeff-Com:  0.356D-04-0.442D-03-0.193D-02-0.255D-02 0.223D-02 0.259D-01
 Coeff-Com:  0.216D+00 0.761D+00
 Coeff:     -0.229D-06 0.373D-06-0.311D-05-0.378D-05 0.190D-04 0.517D-04
 Coeff:      0.356D-04-0.442D-03-0.193D-02-0.255D-02 0.223D-02 0.259D-01
 Coeff:      0.216D+00 0.761D+00
 Gap=     0.163 Goal=   None    Shift=    0.000
 RMSDP=6.77D-09 MaxDP=4.85D-07 DE=-4.43D-12 OVMax= 9.59D-08

 SCF Done:  E(RB3LYP) =  -429.100707644     A.U. after   14 cycles
             Convg  =    0.6770D-08             -V/T =  2.0049
 KE= 4.270132548582D+02 PE=-2.070976744204D+03 EE= 6.775807999086D+02
 Leave Link  502 at Thu Feb  6 19:02:05 2014, MaxMem= 4026531840 cpu:     678.0
 (Enter /usr/caen/gaussian-09revc/g09/l601.exe)
 Copying SCF densities to generalized density rwf, IOpCl= 0 IROHF=0.

 **********************************************************************

            Population analysis using the SCF density.

 **********************************************************************

 Orbital symmetries:
       Occupied  (A) (A) (A) (A) (A) (A) (A) (A) (A) (A) (A) (A)
                 (A) (A) (A) (A) (A) (A) (A) (A) (A) (A) (A) (A)
                 (A) (A) (A) (A) (A) (A) (A) (A) (A) (A) (A) (A)
                 (A) (A) (A) (A)
       Virtual   (A) (A) (A) (A) (A) (A) (A) (A) (A) (A) (A) (A)
                 (A) (A) (A) (A) (A) (A) (A) (A) (A) (A) (A) (A)
                 (A) (A) (A) (A) (A) (A) (A) (A) (A) (A) (A) (A)
                 (A) (A) (A) (A) (A) (A) (A) (A) (A) (A) (A) (A)
                 (A) (A) (A) (A) (A) (A) (A) (A) (A) (A) (A) (A)
                 (A) (A) (A) (A) (A) (A) (A) (A) (A) (A) (A) (A)
                 (A) (A) (A) (A) (A) (A) (A) (A) (A) (A) (A) (A)
                 (A) (A) (A) (A) (A) (A) (A) (A) (A) (A) (A) (A)
                 (A) (A) (A) (A) (A) (A) (A) (A) (A) (A) (A) (A)
                 (A) (A) (A) (A) (A) (A) (A) (A) (A) (A) (A) (A)
                 (A) (A) (A) (A) (A) (A) (A) (A) (A) (A) (A) (A)
                 (A) (A) (A) (A) (A) (A) (A) (A) (A) (A) (A) (A)
                 (A) (A) (A) (A) (A) (A) (A) (A) (A) (A) (A) (A)
                 (A) (A) (A) (A) (A) (A) (A) (A) (A) (A) (A) (A)
                 (A) (A) (A) (A) (A) (A) (A) (A) (A) (A) (A) (A)
                 (A) (A) (A) (A) (A) (A) (A) (A) (A) (A) (A) (A)
                 (A) (A) (A) (A) (A) (A) (A) (A) (A) (A) (A) (A)
                 (A) (A) (A) (A) (A) (A) (A) (A) (A) (A) (A) (A)
                 (A) (A) (A) (A) (A) (A) (A) (A) (A) (A) (A) (A)
                 (A) (A) (A) (A) (A) (A) (A) (A) (A) (A) (A) (A)
                 (A) (A) (A) (A) (A) (A) (A) (A) (A) (A) (A) (A)
                 (A) (A) (A) (A) (A) (A) (A) (A) (A) (A) (A) (A)
                 (A) (A) (A) (A) (A) (A) (A) (A) (A) (A) (A) (A)
                 (A) (A) (A) (A) (A) (A) (A) (A) (A) (A) (A) (A)
                 (A) (A) (A) (A) (A) (A) (A) (A) (A) (A) (A) (A)
                 (A) (A) (A) (A) (A) (A)
 The electronic state is 1-A.
 Alpha  occ. eigenvalues --  -19.13567 -10.26437 -10.19333 -10.18123 -10.17800
 Alpha  occ. eigenvalues --  -10.17394 -10.16913 -10.16431 -10.15989 -10.15986
 Alpha  occ. eigenvalues --   -1.04149  -0.82909  -0.80643  -0.75423  -0.68772
 Alpha  occ. eigenvalues --   -0.68457  -0.65588  -0.61039  -0.56521  -0.55233
 Alpha  occ. eigenvalues --   -0.50110  -0.48230  -0.45776  -0.45226  -0.44349
 Alpha  occ. eigenvalues --   -0.43189  -0.42070  -0.39982  -0.39085  -0.38848
 Alpha  occ. eigenvalues --   -0.38033  -0.36996  -0.36339  -0.36013  -0.34707
 Alpha  occ. eigenvalues --   -0.33546  -0.32791  -0.32632  -0.31524  -0.25656
 Alpha virt. eigenvalues --   -0.09334  -0.01254  -0.00204   0.00135   0.00687
 Alpha virt. eigenvalues --    0.01699   0.02160   0.02751   0.03312   0.03990
 Alpha virt. eigenvalues --    0.04220   0.04432   0.05215   0.05577   0.06180
 Alpha virt. eigenvalues --    0.06798   0.06910   0.07873   0.08481   0.08932
 Alpha virt. eigenvalues --    0.09164   0.09671   0.10496   0.10744   0.11386
 Alpha virt. eigenvalues --    0.11624   0.11781   0.11946   0.12139   0.12626
 Alpha virt. eigenvalues --    0.13361   0.13588   0.13835   0.14080   0.14230
 Alpha virt. eigenvalues --    0.14449   0.14829   0.15333   0.15551   0.15841
 Alpha virt. eigenvalues --    0.16330   0.16869   0.16975   0.17398   0.17652
 Alpha virt. eigenvalues --    0.18030   0.18175   0.18457   0.19439   0.19638
 Alpha virt. eigenvalues --    0.20339   0.20569   0.20985   0.21472   0.21714
 Alpha virt. eigenvalues --    0.21932   0.22401   0.22541   0.23323   0.24157
 Alpha virt. eigenvalues --    0.24500   0.25027   0.25412   0.25826   0.26867
 Alpha virt. eigenvalues --    0.27568   0.28357   0.28841   0.29606   0.29936
 Alpha virt. eigenvalues --    0.31172   0.31409   0.32336   0.32522   0.33073
 Alpha virt. eigenvalues --    0.33688   0.34410   0.34732   0.35075   0.35606
 Alpha virt. eigenvalues --    0.36240   0.37867   0.38261   0.39867   0.40449
 Alpha virt. eigenvalues --    0.42360   0.43501   0.45305   0.46662   0.47124
 Alpha virt. eigenvalues --    0.49511   0.49776   0.50797   0.51673   0.53048
 Alpha virt. eigenvalues --    0.54106   0.54485   0.55005   0.57452   0.58459
 Alpha virt. eigenvalues --    0.59690   0.61203   0.62090   0.63537   0.64360
 Alpha virt. eigenvalues --    0.65183   0.65435   0.65903   0.66088   0.67730
 Alpha virt. eigenvalues --    0.68305   0.68674   0.68766   0.69326   0.69623
 Alpha virt. eigenvalues --    0.71181   0.71644   0.72678   0.73386   0.73737
 Alpha virt. eigenvalues --    0.74256   0.74600   0.75836   0.76799   0.78159
 Alpha virt. eigenvalues --    0.78296   0.79010   0.80290   0.81673   0.84069
 Alpha virt. eigenvalues --    0.85692   0.87990   0.92360   0.93687   0.95818
 Alpha virt. eigenvalues --    0.96706   0.99764   1.01120   1.01756   1.04382
 Alpha virt. eigenvalues --    1.07574   1.09849   1.11872   1.13049   1.14824
 Alpha virt. eigenvalues --    1.16988   1.18630   1.20998   1.22650   1.23415
 Alpha virt. eigenvalues --    1.25240   1.27777   1.31753   1.33787   1.40412
 Alpha virt. eigenvalues --    1.41825   1.44534   1.45831   1.46362   1.46955
 Alpha virt. eigenvalues --    1.47828   1.48501   1.49129   1.51079   1.54614
 Alpha virt. eigenvalues --    1.55423   1.56226   1.57047   1.57717   1.58525
 Alpha virt. eigenvalues --    1.59754   1.60040   1.60867   1.62080   1.62344
 Alpha virt. eigenvalues --    1.64138   1.64677   1.65502   1.66803   1.67062
 Alpha virt. eigenvalues --    1.68794   1.70044   1.70883   1.72179   1.73159
 Alpha virt. eigenvalues --    1.74689   1.76015   1.76659   1.77793   1.78384
 Alpha virt. eigenvalues --    1.79866   1.80636   1.81552   1.84922   1.86677
 Alpha virt. eigenvalues --    1.88379   1.90444   1.91134   1.95321   1.97619
 Alpha virt. eigenvalues --    1.99331   2.01332   2.01825   2.06254   2.07132
 Alpha virt. eigenvalues --    2.09391   2.11297   2.13851   2.14207   2.17120
 Alpha virt. eigenvalues --    2.17815   2.19345   2.23460   2.24903   2.27717
 Alpha virt. eigenvalues --    2.28558   2.31559   2.32179   2.34906   2.37170
 Alpha virt. eigenvalues --    2.39816   2.41116   2.41979   2.46357   2.47071
 Alpha virt. eigenvalues --    2.48516   2.49393   2.50119   2.50688   2.51318
 Alpha virt. eigenvalues --    2.52472   2.54374   2.54704   2.56508   2.58664
 Alpha virt. eigenvalues --    2.59622   2.60603   2.61155   2.62395   2.63482
 Alpha virt. eigenvalues --    2.65697   2.66507   2.68724   2.70604   2.71572
 Alpha virt. eigenvalues --    2.72151   2.74619   2.76291   2.76990   2.77522
 Alpha virt. eigenvalues --    2.78667   2.81365   2.84130   2.85133   2.86850
 Alpha virt. eigenvalues --    2.87698   2.92257   2.93163   2.94441   2.95832
 Alpha virt. eigenvalues --    2.96668   2.98942   3.01244   3.02183   3.04106
 Alpha virt. eigenvalues --    3.07916   3.10480   3.16975   3.21781   3.27111
 Alpha virt. eigenvalues --    3.32318   3.39690   3.47078   3.50047   3.51216
 Alpha virt. eigenvalues --    3.76840   3.78352   3.79275   3.79850   3.80626
 Alpha virt. eigenvalues --    3.82173   3.83743   3.84862   3.87910   3.94872
 Alpha virt. eigenvalues --    3.98684   4.02496   4.11132   4.19772   4.27304
 Alpha virt. eigenvalues --    4.29846   4.31421   4.39296   5.07923   5.14984
 Alpha virt. eigenvalues --    5.67619  23.79431  23.83077  23.84187  23.89014
 Alpha virt. eigenvalues --   23.91268  23.91360  23.97405  23.97680  23.98501
 Alpha virt. eigenvalues --   49.92091
          Condensed to atoms (all electrons):
              1          2          3          4          5          6
     1  C    6.069634   0.435440   0.436840   0.327948  -0.427947  -0.008649
     2  H    0.435440   0.602061  -0.048284  -0.028203  -0.132371  -0.022577
     3  H    0.436840  -0.048284   0.505985  -0.025896   0.074276   0.016708
     4  H    0.327948  -0.028203  -0.025896   0.560221   0.028940  -0.008510
     5  C   -0.427947  -0.132371   0.074276   0.028940   8.576434   0.652814
     6  H   -0.008649  -0.022577   0.016708  -0.008510   0.652814   0.646764
     7  C    0.323481   0.035584  -0.093256   0.002751  -2.412745  -0.235525
     8  H   -0.031139  -0.007317   0.004854   0.002060  -0.031563  -0.003484
     9  H    0.045366   0.008546   0.004605  -0.003832   0.019844   0.015695
    10  C   -0.206700   0.001298  -0.002969   0.004966   0.346378  -0.027950
    11  H   -0.010668   0.000273   0.000113   0.001018  -0.007280   0.002997
    12  H    0.005541  -0.001264   0.003227  -0.000551   0.133625   0.022486
    13  C    0.001684   0.005556  -0.003799  -0.004083  -0.748743  -0.049409
    14  H   -0.001150  -0.000431   0.000393   0.000034  -0.015320  -0.000301
    15  H   -0.000965   0.001565  -0.000713  -0.000217  -0.022085  -0.002205
    16  C   -0.004554   0.001560   0.000148  -0.000657  -0.145585  -0.005971
    17  H    0.002204   0.000184   0.000053  -0.000108   0.004262  -0.000242
    18  C   -0.002555   0.000017  -0.000058  -0.000013  -0.018166  -0.001051
    19  H    0.000059   0.000013  -0.000004  -0.000002   0.000465  -0.000008
    20  H   -0.000004   0.000023  -0.000006  -0.000005  -0.001465  -0.000156
    21  H   -0.000234  -0.000090   0.000013   0.000019   0.001879   0.000160
    22  C   -0.316753   0.028138  -0.059367  -0.007730  -0.730667  -0.187901
    23  H    0.064068  -0.002775   0.001647  -0.002260   0.008227   0.021355
    24  C   -0.000164  -0.000402  -0.000026   0.000110  -0.010254   0.001554
    25  H   -0.000087  -0.000022   0.000004   0.000001  -0.001605   0.000038
    26  H    0.000056   0.000045   0.000008   0.000002   0.003772  -0.000084
    27  H   -0.000649   0.000049  -0.000155   0.000037  -0.016113  -0.001412
    28  O    0.048217  -0.003115   0.004139  -0.007124  -0.020963   0.025625
              7          8          9         10         11         12
     1  C    0.323481  -0.031139   0.045366  -0.206700  -0.010668   0.005541
     2  H    0.035584  -0.007317   0.008546   0.001298   0.000273  -0.001264
     3  H   -0.093256   0.004854   0.004605  -0.002969   0.000113   0.003227
     4  H    0.002751   0.002060  -0.003832   0.004966   0.001018  -0.000551
     5  C   -2.412745  -0.031563   0.019844   0.346378  -0.007280   0.133625
     6  H   -0.235525  -0.003484   0.015695  -0.027950   0.002997   0.022486
     7  C    8.672444   0.419869   0.445093  -0.896011  -0.095191  -0.164538
     8  H    0.419869   0.666802  -0.083751  -0.091983  -0.031871   0.017465
     9  H    0.445093  -0.083751   0.560015  -0.061658   0.020898  -0.014686
    10  C   -0.896011  -0.091983  -0.061658   6.775662   0.545921   0.465522
    11  H   -0.095191  -0.031871   0.020898   0.545921   0.671688  -0.118100
    12  H   -0.164538   0.017465  -0.014686   0.465522  -0.118100   0.743700
    13  C    0.724633  -0.005911  -0.040691  -1.041200  -0.133059  -0.141363
    14  H   -0.017555  -0.001855   0.006932  -0.092283   0.020407  -0.015968
    15  H   -0.008038   0.001658  -0.000850  -0.087384  -0.027063   0.016148
    16  C   -0.244711  -0.019228  -0.003051   0.248214   0.054651   0.017548
    17  H   -0.005362  -0.001741   0.000554  -0.011009   0.010720   0.012014
    18  C   -0.038621  -0.003536  -0.001645  -0.192583  -0.000529  -0.007613
    19  H   -0.000372  -0.000593   0.000413   0.007757   0.001184   0.002583
    20  H   -0.002326  -0.000293   0.000076  -0.000153   0.000222  -0.000672
    21  H   -0.001799   0.001584  -0.000402  -0.001563  -0.000114  -0.000848
    22  C    0.595267   0.051037  -0.113014   0.181325  -0.010074  -0.050791
    23  H   -0.079520   0.004958   0.002698  -0.023189  -0.012567   0.014816
    24  C    0.107614   0.009401  -0.006645   0.091618  -0.033853  -0.004668
    25  H    0.003718   0.000442  -0.000242   0.008135  -0.000844  -0.001735
    26  H   -0.015288  -0.000677   0.000667   0.008505   0.004079   0.001652
    27  H    0.003312   0.000139  -0.000681   0.025440   0.000679  -0.005121
    28  O   -0.077503   0.008021  -0.003344  -0.031223  -0.000521  -0.017193
             13         14         15         16         17         18
     1  C    0.001684  -0.001150  -0.000965  -0.004554   0.002204  -0.002555
     2  H    0.005556  -0.000431   0.001565   0.001560   0.000184   0.000017
     3  H   -0.003799   0.000393  -0.000713   0.000148   0.000053  -0.000058
     4  H   -0.004083   0.000034  -0.000217  -0.000657  -0.000108  -0.000013
     5  C   -0.748743  -0.015320  -0.022085  -0.145585   0.004262  -0.018166
     6  H   -0.049409  -0.000301  -0.002205  -0.005971  -0.000242  -0.001051
     7  C    0.724633  -0.017555  -0.008038  -0.244711  -0.005362  -0.038621
     8  H   -0.005911  -0.001855   0.001658  -0.019228  -0.001741  -0.003536
     9  H   -0.040691   0.006932  -0.000850  -0.003051   0.000554  -0.001645
    10  C   -1.041200  -0.092283  -0.087384   0.248214  -0.011009  -0.192583
    11  H   -0.133059   0.020407  -0.027063   0.054651   0.010720  -0.000529
    12  H   -0.141363  -0.015968   0.016148   0.017548   0.012014  -0.007613
    13  C    8.061312   0.458190   0.445419  -1.220166  -0.120929   0.364752
    14  H    0.458190   0.594405  -0.071937   0.029115   0.020245   0.006513
    15  H    0.445419  -0.071937   0.658186  -0.052115  -0.014301   0.020300
    16  C   -1.220166   0.029115  -0.052115   6.646046   0.556558  -0.144599
    17  H   -0.120929   0.020245  -0.014301   0.556558   0.623522  -0.061630
    18  C    0.364752   0.006513   0.020300  -0.144599  -0.061630   5.677306
    19  H   -0.090121   0.004692   0.001650   0.093334   0.016620   0.374714
    20  H    0.043905  -0.002695   0.001508  -0.086140  -0.012684   0.400754
    21  H   -0.015311   0.003040   0.000395  -0.050997  -0.013874   0.409489
    22  C    0.135431   0.000147   0.003894   0.014950  -0.004055   0.004403
    23  H   -0.013427  -0.000933  -0.000466  -0.010642   0.000851  -0.000136
    24  C    0.094788  -0.072220   0.022284  -0.113987  -0.126489  -0.162884
    25  H    0.034347  -0.004390  -0.002172  -0.095521  -0.007239  -0.005819
    26  H   -0.080035   0.012564  -0.003292   0.072735   0.013672  -0.009087
    27  H   -0.034063   0.001844   0.003051  -0.043755  -0.015342   0.011586
    28  O   -0.008237   0.000490  -0.000655   0.000480  -0.000014  -0.000046
             19         20         21         22         23         24
     1  C    0.000059  -0.000004  -0.000234  -0.316753   0.064068  -0.000164
     2  H    0.000013   0.000023  -0.000090   0.028138  -0.002775  -0.000402
     3  H   -0.000004  -0.000006   0.000013  -0.059367   0.001647  -0.000026
     4  H   -0.000002  -0.000005   0.000019  -0.007730  -0.002260   0.000110
     5  C    0.000465  -0.001465   0.001879  -0.730667   0.008227  -0.010254
     6  H   -0.000008  -0.000156   0.000160  -0.187901   0.021355   0.001554
     7  C   -0.000372  -0.002326  -0.001799   0.595267  -0.079520   0.107614
     8  H   -0.000593  -0.000293   0.001584   0.051037   0.004958   0.009401
     9  H    0.000413   0.000076  -0.000402  -0.113014   0.002698  -0.006645
    10  C    0.007757  -0.000153  -0.001563   0.181325  -0.023189   0.091618
    11  H    0.001184   0.000222  -0.000114  -0.010074  -0.012567  -0.033853
    12  H    0.002583  -0.000672  -0.000848  -0.050791   0.014816  -0.004668
    13  C   -0.090121   0.043905  -0.015311   0.135431  -0.013427   0.094788
    14  H    0.004692  -0.002695   0.003040   0.000147  -0.000933  -0.072220
    15  H    0.001650   0.001508   0.000395   0.003894  -0.000466   0.022284
    16  C    0.093334  -0.086140  -0.050997   0.014950  -0.010642  -0.113987
    17  H    0.016620  -0.012684  -0.013874  -0.004055   0.000851  -0.126489
    18  C    0.374714   0.400754   0.409489   0.004403  -0.000136  -0.162884
    19  H    0.560837  -0.032971  -0.047541  -0.000127  -0.000046  -0.038524
    20  H   -0.032971   0.562550  -0.018866   0.000115  -0.000049  -0.007268
    21  H   -0.047541  -0.018866   0.582865   0.000081   0.000080   0.025116
    22  C   -0.000127   0.000115   0.000081   6.045282   0.236907   0.011105
    23  H   -0.000046  -0.000049   0.000080   0.236907   0.724573   0.003010
    24  C   -0.038524  -0.007268   0.025116   0.011105   0.003010   5.674462
    25  H    0.002378   0.000356   0.001398   0.000849   0.000087   0.419087
    26  H    0.011532   0.001113  -0.002391  -0.001804   0.000222   0.353130
    27  H   -0.005659   0.002637  -0.002190   0.008261  -0.005647   0.413992
    28  O   -0.000005   0.000007   0.000000   0.388869  -0.051335   0.000506
             25         26         27         28
     1  C   -0.000087   0.000056  -0.000649   0.048217
     2  H   -0.000022   0.000045   0.000049  -0.003115
     3  H    0.000004   0.000008  -0.000155   0.004139
     4  H    0.000001   0.000002   0.000037  -0.007124
     5  C   -0.001605   0.003772  -0.016113  -0.020963
     6  H    0.000038  -0.000084  -0.001412   0.025625
     7  C    0.003718  -0.015288   0.003312  -0.077503
     8  H    0.000442  -0.000677   0.000139   0.008021
     9  H   -0.000242   0.000667  -0.000681  -0.003344
    10  C    0.008135   0.008505   0.025440  -0.031223
    11  H   -0.000844   0.004079   0.000679  -0.000521
    12  H   -0.001735   0.001652  -0.005121  -0.017193
    13  C    0.034347  -0.080035  -0.034063  -0.008237
    14  H   -0.004390   0.012564   0.001844   0.000490
    15  H   -0.002172  -0.003292   0.003051  -0.000655
    16  C   -0.095521   0.072735  -0.043755   0.000480
    17  H   -0.007239   0.013672  -0.015342  -0.000014
    18  C   -0.005819  -0.009087   0.011586  -0.000046
    19  H    0.002378   0.011532  -0.005659  -0.000005
    20  H    0.000356   0.001113   0.002637   0.000007
    21  H    0.001398  -0.002391  -0.002190   0.000000
    22  C    0.000849  -0.001804   0.008261   0.388869
    23  H    0.000087   0.000222  -0.005647  -0.051335
    24  C    0.419087   0.353130   0.413992   0.000506
    25  H    0.567189  -0.030493  -0.028071   0.000020
    26  H   -0.030493   0.555605  -0.041832  -0.000082
    27  H   -0.028071  -0.041832   0.591226   0.000806
    28  O    0.000020  -0.000082   0.000806   7.930036
 Mulliken atomic charges:
              1
     1  C   -0.748320
     2  H    0.126498
     3  H    0.181519
     4  H    0.161084
     5  C    0.891952
     6  H    0.149237
     7  C   -0.945407
     8  H    0.126654
     9  H    0.203090
    10  C    0.057115
    11  H    0.146885
    12  H    0.088783
    13  C   -0.619471
    14  H    0.138027
    15  H    0.118400
    16  C    0.506338
    17  H    0.133562
    18  C   -0.619263
    19  H    0.137743
    20  H    0.152486
    21  H    0.130100
    22  C   -0.223779
    23  H    0.119492
    24  C   -0.650395
    25  H    0.140190
    26  H    0.145704
    27  H    0.137629
    28  O   -0.185854
 Sum of Mulliken atomic charges =   0.00000
 Mulliken charges with hydrogens summed into heavy atoms:
              1
     1  C   -0.279219
     5  C    1.041190
     7  C   -0.615662
    10  C    0.292783
    13  C   -0.363044
    16  C    0.639900
    18  C   -0.198934
    22  C   -0.104286
    24  C   -0.226873
    28  O   -0.185854
 Sum of Mulliken charges with hydrogens summed into heavy atoms =   0.00000
 Electronic spatial extent (au):  <R**2>=           2686.0202
 Charge=              0.0000 electrons
 Dipole moment (field-independent basis, Debye):
    X=             -1.3159    Y=             -1.3903    Z=             -1.8974  Tot=              2.6953
 Quadrupole moment (field-independent basis, Debye-Ang):
   XX=            -71.1689   YY=            -68.5026   ZZ=            -67.1511
   XY=             -4.6463   XZ=             -5.4847   YZ=             -2.7772
 Traceless Quadrupole moment (field-independent basis, Debye-Ang):
   XX=             -2.2280   YY=              0.4383   ZZ=              1.7897
   XY=             -4.6463   XZ=             -5.4847   YZ=             -2.7772
 Octapole moment (field-independent basis, Debye-Ang**2):
  XXX=             -2.8115  YYY=             -2.8819  ZZZ=              2.7962  XYY=             -3.4324
  XXY=            -10.9810  XXZ=            -19.8783  XZZ=              0.0096  YZZ=             -0.0747
  YYZ=             -5.1789  XYZ=             -9.5476
 Hexadecapole moment (field-independent basis, Debye-Ang**3):
 XXXX=          -3071.3537 YYYY=           -520.6544 ZZZZ=           -193.0439 XXXY=            -39.8876
 XXXZ=            -34.8191 YYYX=              2.6485 YYYZ=             -2.8895 ZZZX=              4.1757
 ZZZY=              4.6045 XXYY=           -626.4271 XXZZ=           -545.6101 YYZZ=           -124.8561
 XXYZ=            -25.3417 YYXZ=             -9.8470 ZZXY=             -3.1078
 N-N= 5.372819817928D+02 E-N=-2.070976744533D+03  KE= 4.270132548582D+02
 No NMR shielding tensors so no spin-rotation constants.
 Leave Link  601 at Thu Feb  6 19:02:06 2014, MaxMem= 4026531840 cpu:       4.5
 (Enter /usr/caen/gaussian-09revc/g09/l801.exe)
 Range of M.O.s used for correlation:     1   346
 NBasis=   346 NAE=    40 NBE=    40 NFC=     0 NFV=     0
 NROrb=    346 NOA=    40 NOB=    40 NVA=   306 NVB=   306

 **** Warning!!: The largest alpha MO coefficient is  0.13850967D+03

 Leave Link  801 at Thu Feb  6 19:02:06 2014, MaxMem= 4026531840 cpu:       0.2
 (Enter /usr/caen/gaussian-09revc/g09/l914.exe)
 RHF ground state
 Doing stability rather than CIS.
 MDV=  4026531840 DFT=T DoStab=T Mixed=T DoRPA=F DoScal=F NonHer=F
 Would need an additional   240800000 words for in-memory AO integral storage.
 Making orbital integer symmetry assigments:
 Orbital symmetries:
       Occupied  (A) (A) (A) (A) (A) (A) (A) (A) (A) (A) (A) (A)
                 (A) (A) (A) (A) (A) (A) (A) (A) (A) (A) (A) (A)
                 (A) (A) (A) (A) (A) (A) (A) (A) (A) (A) (A) (A)
                 (A) (A) (A) (A)
       Virtual   (A) (A) (A) (A) (A) (A) (A) (A) (A) (A) (A) (A)
                 (A) (A) (A) (A) (A) (A) (A) (A) (A) (A) (A) (A)
                 (A) (A) (A) (A) (A) (A) (A) (A) (A) (A) (A) (A)
                 (A) (A) (A) (A) (A) (A) (A) (A) (A) (A) (A) (A)
                 (A) (A) (A) (A) (A) (A) (A) (A) (A) (A) (A) (A)
                 (A) (A) (A) (A) (A) (A) (A) (A) (A) (A) (A) (A)
                 (A) (A) (A) (A) (A) (A) (A) (A) (A) (A) (A) (A)
                 (A) (A) (A) (A) (A) (A) (A) (A) (A) (A) (A) (A)
                 (A) (A) (A) (A) (A) (A) (A) (A) (A) (A) (A) (A)
                 (A) (A) (A) (A) (A) (A) (A) (A) (A) (A) (A) (A)
                 (A) (A) (A) (A) (A) (A) (A) (A) (A) (A) (A) (A)
                 (A) (A) (A) (A) (A) (A) (A) (A) (A) (A) (A) (A)
                 (A) (A) (A) (A) (A) (A) (A) (A) (A) (A) (A) (A)
                 (A) (A) (A) (A) (A) (A) (A) (A) (A) (A) (A) (A)
                 (A) (A) (A) (A) (A) (A) (A) (A) (A) (A) (A) (A)
                 (A) (A) (A) (A) (A) (A) (A) (A) (A) (A) (A) (A)
                 (A) (A) (A) (A) (A) (A) (A) (A) (A) (A) (A) (A)
                 (A) (A) (A) (A) (A) (A) (A) (A) (A) (A) (A) (A)
                 (A) (A) (A) (A) (A) (A) (A) (A) (A) (A) (A) (A)
                 (A) (A) (A) (A) (A) (A) (A) (A) (A) (A) (A) (A)
                 (A) (A) (A) (A) (A) (A) (A) (A) (A) (A) (A) (A)
                 (A) (A) (A) (A) (A) (A) (A) (A) (A) (A) (A) (A)
                 (A) (A) (A) (A) (A) (A) (A) (A) (A) (A) (A) (A)
                 (A) (A) (A) (A) (A) (A) (A) (A) (A) (A) (A) (A)
                 (A) (A) (A) (A) (A) (A) (A) (A) (A) (A) (A) (A)
                 (A) (A) (A) (A) (A) (A)
    24 initial guesses have been made.
 Convergence on wavefunction:    0.001000000000000
 Davidson Disk Diagonalization:  ConvIn= 1.00D-03 SkipCon=T Conv= 1.00D-03.
 Max sub-space:   200 roots to seek:    24 dimension of matrix:  24480
 Iteration     1 Dimension    24 NMult    24
 CISAX:  IP=  8 NPass=   1 NMax=    24.
 CISAX will form    24 AO SS matrices at one time.
 NMat=    24 NSing=    12.
 Symmetry not used in FoFDir.
 MinBra= 0 MaxBra= 2 Meth= 1.
 IRaf=       0 NMat=  24 IRICut=       1 DoRegI=T DoRafI=F ISym2E= 0 JSym2E=0.
 New state      1 was old state      2
 Excitation Energies [eV] at current iteration:
 Root      1 :     1.662371750221540
 Root      2 :     3.118613289210306
 Root      3 :     4.488814192911859
 Root      4 :     5.283544975151178
 Root      5 :     5.459583546070984
 Root      6 :     5.697821107096549
 Root      7 :     5.759009326089306
 Root      8 :     5.799468290255457
 Root      9 :     5.834081210867907
 Root     10 :     5.953610741236377
 Root     11 :     5.961591141320692
 Root     12 :     6.076696445007505
 Root     13 :     6.114260181465293
 Root     14 :     6.298311000508286
 Root     15 :     6.299126594098346
 Root     16 :     6.385734446135901
 Root     17 :     6.411435339865444
 Root     18 :     6.430622243374824
 Root     19 :     6.475784618111296
 Root     20 :     6.532764126324640
 Root     21 :     6.572432201754841
 Root     22 :     6.595863781325474
 Root     23 :     6.720102194002484
 Root     24 :     8.583295892673753
 Iteration     2 Dimension    48 NMult    48
 CISAX:  IP=  8 NPass=   1 NMax=    24.
 CISAX will form    24 AO SS matrices at one time.
 NMat=    24 NSing=    12.
 Root      1 not converged, maximum delta is    0.035457516566853
 Excitation Energies [eV] at current iteration:
 Root      1 :     1.414919488043269   Change is   -0.247452262178271
 Root      2 :     2.382165093522818   Change is   -2.106649099389040
 Root      3 :     2.959537224445842   Change is   -0.159076064764463
 Root      4 :     5.084645536312880   Change is   -0.198899438838298
 Root      5 :     5.348268343600532   Change is   -0.111315202470453
 Root      6 :     5.368622909146425
 Iteration     3 Dimension    54 NMult    54
 CISAX:  IP=  1 NPass=   1 NMax=     6.
 CISAX will form     6 AO SS matrices at one time.
 NMat=     6 NSing=     3.
 Root      1 not converged, maximum delta is    0.001849463200123
 Excitation Energies [eV] at current iteration:
 Root      1 :     1.413256901992638   Change is   -0.001662586050631
 Root      2 :     2.171714178765153   Change is   -0.210450914757666
 Root      3 :     2.941073944676777   Change is   -0.018463279769066
 Root      4 :     4.970570737673478   Change is   -0.114074798639401
 Root      5 :     5.232971577955170   Change is   -0.115296765645361
 Root      6 :     5.360114579279045   Change is   -0.008508329867379
 Iteration     4 Dimension    60 NMult    60
 CISAX:  IP=  1 NPass=   1 NMax=     6.
 CISAX will form     6 AO SS matrices at one time.
 NMat=     6 NSing=     3.
 Root      1 has converged.
 Excitation Energies [eV] at current iteration:
 Root      1 :     1.413219263185523   Change is   -0.000037638807115
 Root      2 :     2.166886140407369   Change is   -0.004828038357784
 Root      3 :     2.939264052342061   Change is   -0.001809892334715
 Root      4 :     4.953745652617742   Change is   -0.016825085055737
 Root      5 :     5.216466375137883   Change is   -0.016505202817287
 Root      6 :     5.359169224369388   Change is   -0.000945354909658
 Convergence achieved on expansion vectors.
 ***********************************************************************
 Stability analysis using <AA,BB:AA,BB> singles matrix:
 ***********************************************************************

 Eigenvectors of the stability matrix:
 
 Eigenvector   1:      Triplet-A    Eigenvalue= 0.0519349  <S**2>=2.000
      40 -> 41         0.69736
 SavETr:  write IOETrn=   770 NScale= 10 NData=  16 NLR=1 LETran=      28.
 The wavefunction is stable under the perturbations considered.
 Leave Link  914 at Thu Feb  6 19:06:19 2014, MaxMem= 4026531840 cpu:    2014.0
 (Enter /usr/caen/gaussian-09revc/g09/l502.exe)
 The wavefunction is already stable.
 Leave Link  502 at Thu Feb  6 19:06:20 2014, MaxMem= 4026531840 cpu:       0.1
 (Enter /usr/caen/gaussian-09revc/g09/l508.exe)
 The wavefunction is already stable.
 Leave Link  508 at Thu Feb  6 19:06:20 2014, MaxMem= 4026531840 cpu:       0.0
 (Enter /usr/caen/gaussian-09revc/g09/l601.exe)
 Copying SCF densities to generalized density rwf, IOpCl= 0 IROHF=0.

 **********************************************************************

            Population analysis using the SCF density.

 **********************************************************************

 Orbital symmetries:
       Occupied  (A) (A) (A) (A) (A) (A) (A) (A) (A) (A) (A) (A)
                 (A) (A) (A) (A) (A) (A) (A) (A) (A) (A) (A) (A)
                 (A) (A) (A) (A) (A) (A) (A) (A) (A) (A) (A) (A)
                 (A) (A) (A) (A)
       Virtual   (A) (A) (A) (A) (A) (A) (A) (A) (A) (A) (A) (A)
                 (A) (A) (A) (A) (A) (A) (A) (A) (A) (A) (A) (A)
                 (A) (A) (A) (A) (A) (A) (A) (A) (A) (A) (A) (A)
                 (A) (A) (A) (A) (A) (A) (A) (A) (A) (A) (A) (A)
                 (A) (A) (A) (A) (A) (A) (A) (A) (A) (A) (A) (A)
                 (A) (A) (A) (A) (A) (A) (A) (A) (A) (A) (A) (A)
                 (A) (A) (A) (A) (A) (A) (A) (A) (A) (A) (A) (A)
                 (A) (A) (A) (A) (A) (A) (A) (A) (A) (A) (A) (A)
                 (A) (A) (A) (A) (A) (A) (A) (A) (A) (A) (A) (A)
                 (A) (A) (A) (A) (A) (A) (A) (A) (A) (A) (A) (A)
                 (A) (A) (A) (A) (A) (A) (A) (A) (A) (A) (A) (A)
                 (A) (A) (A) (A) (A) (A) (A) (A) (A) (A) (A) (A)
                 (A) (A) (A) (A) (A) (A) (A) (A) (A) (A) (A) (A)
                 (A) (A) (A) (A) (A) (A) (A) (A) (A) (A) (A) (A)
                 (A) (A) (A) (A) (A) (A) (A) (A) (A) (A) (A) (A)
                 (A) (A) (A) (A) (A) (A) (A) (A) (A) (A) (A) (A)
                 (A) (A) (A) (A) (A) (A) (A) (A) (A) (A) (A) (A)
                 (A) (A) (A) (A) (A) (A) (A) (A) (A) (A) (A) (A)
                 (A) (A) (A) (A) (A) (A) (A) (A) (A) (A) (A) (A)
                 (A) (A) (A) (A) (A) (A) (A) (A) (A) (A) (A) (A)
                 (A) (A) (A) (A) (A) (A) (A) (A) (A) (A) (A) (A)
                 (A) (A) (A) (A) (A) (A) (A) (A) (A) (A) (A) (A)
                 (A) (A) (A) (A) (A) (A) (A) (A) (A) (A) (A) (A)
                 (A) (A) (A) (A) (A) (A) (A) (A) (A) (A) (A) (A)
                 (A) (A) (A) (A) (A) (A) (A) (A) (A) (A) (A) (A)
                 (A) (A) (A) (A) (A) (A)
 The electronic state is 1-A.
 Alpha  occ. eigenvalues --  -19.13567 -10.26437 -10.19333 -10.18123 -10.17800
 Alpha  occ. eigenvalues --  -10.17394 -10.16913 -10.16431 -10.15989 -10.15986
 Alpha  occ. eigenvalues --   -1.04149  -0.82909  -0.80643  -0.75423  -0.68772
 Alpha  occ. eigenvalues --   -0.68457  -0.65588  -0.61039  -0.56521  -0.55233
 Alpha  occ. eigenvalues --   -0.50110  -0.48230  -0.45776  -0.45226  -0.44349
 Alpha  occ. eigenvalues --   -0.43189  -0.42070  -0.39982  -0.39085  -0.38848
 Alpha  occ. eigenvalues --   -0.38033  -0.36996  -0.36339  -0.36013  -0.34707
 Alpha  occ. eigenvalues --   -0.33546  -0.32791  -0.32632  -0.31524  -0.25656
 Alpha virt. eigenvalues --   -0.09334  -0.01254  -0.00204   0.00135   0.00687
 Alpha virt. eigenvalues --    0.01699   0.02160   0.02751   0.03312   0.03990
 Alpha virt. eigenvalues --    0.04220   0.04432   0.05215   0.05577   0.06180
 Alpha virt. eigenvalues --    0.06798   0.06910   0.07873   0.08481   0.08932
 Alpha virt. eigenvalues --    0.09164   0.09671   0.10496   0.10744   0.11386
 Alpha virt. eigenvalues --    0.11624   0.11781   0.11946   0.12139   0.12626
 Alpha virt. eigenvalues --    0.13361   0.13588   0.13835   0.14080   0.14230
 Alpha virt. eigenvalues --    0.14449   0.14829   0.15333   0.15551   0.15841
 Alpha virt. eigenvalues --    0.16330   0.16869   0.16975   0.17398   0.17652
 Alpha virt. eigenvalues --    0.18030   0.18175   0.18457   0.19439   0.19638
 Alpha virt. eigenvalues --    0.20339   0.20569   0.20985   0.21472   0.21714
 Alpha virt. eigenvalues --    0.21932   0.22401   0.22541   0.23323   0.24157
 Alpha virt. eigenvalues --    0.24500   0.25027   0.25412   0.25826   0.26867
 Alpha virt. eigenvalues --    0.27568   0.28357   0.28841   0.29606   0.29936
 Alpha virt. eigenvalues --    0.31172   0.31409   0.32336   0.32522   0.33073
 Alpha virt. eigenvalues --    0.33688   0.34410   0.34732   0.35075   0.35606
 Alpha virt. eigenvalues --    0.36240   0.37867   0.38261   0.39867   0.40449
 Alpha virt. eigenvalues --    0.42360   0.43501   0.45305   0.46662   0.47124
 Alpha virt. eigenvalues --    0.49511   0.49776   0.50797   0.51673   0.53048
 Alpha virt. eigenvalues --    0.54106   0.54485   0.55005   0.57452   0.58459
 Alpha virt. eigenvalues --    0.59690   0.61203   0.62090   0.63537   0.64360
 Alpha virt. eigenvalues --    0.65183   0.65435   0.65903   0.66088   0.67730
 Alpha virt. eigenvalues --    0.68305   0.68674   0.68766   0.69326   0.69623
 Alpha virt. eigenvalues --    0.71181   0.71644   0.72678   0.73386   0.73737
 Alpha virt. eigenvalues --    0.74256   0.74600   0.75836   0.76799   0.78159
 Alpha virt. eigenvalues --    0.78296   0.79010   0.80290   0.81673   0.84069
 Alpha virt. eigenvalues --    0.85692   0.87990   0.92360   0.93687   0.95818
 Alpha virt. eigenvalues --    0.96706   0.99764   1.01120   1.01756   1.04382
 Alpha virt. eigenvalues --    1.07574   1.09849   1.11872   1.13049   1.14824
 Alpha virt. eigenvalues --    1.16988   1.18630   1.20998   1.22650   1.23415
 Alpha virt. eigenvalues --    1.25240   1.27777   1.31753   1.33787   1.40412
 Alpha virt. eigenvalues --    1.41825   1.44534   1.45831   1.46362   1.46955
 Alpha virt. eigenvalues --    1.47828   1.48501   1.49129   1.51079   1.54614
 Alpha virt. eigenvalues --    1.55423   1.56226   1.57047   1.57717   1.58525
 Alpha virt. eigenvalues --    1.59754   1.60040   1.60867   1.62080   1.62344
 Alpha virt. eigenvalues --    1.64138   1.64677   1.65502   1.66803   1.67062
 Alpha virt. eigenvalues --    1.68794   1.70044   1.70883   1.72179   1.73159
 Alpha virt. eigenvalues --    1.74689   1.76015   1.76659   1.77793   1.78384
 Alpha virt. eigenvalues --    1.79866   1.80636   1.81552   1.84922   1.86677
 Alpha virt. eigenvalues --    1.88379   1.90444   1.91134   1.95321   1.97619
 Alpha virt. eigenvalues --    1.99331   2.01332   2.01825   2.06254   2.07132
 Alpha virt. eigenvalues --    2.09391   2.11297   2.13851   2.14207   2.17120
 Alpha virt. eigenvalues --    2.17815   2.19345   2.23460   2.24903   2.27717
 Alpha virt. eigenvalues --    2.28558   2.31559   2.32179   2.34906   2.37170
 Alpha virt. eigenvalues --    2.39816   2.41116   2.41979   2.46357   2.47071
 Alpha virt. eigenvalues --    2.48516   2.49393   2.50119   2.50688   2.51318
 Alpha virt. eigenvalues --    2.52472   2.54374   2.54704   2.56508   2.58664
 Alpha virt. eigenvalues --    2.59622   2.60603   2.61155   2.62395   2.63482
 Alpha virt. eigenvalues --    2.65697   2.66507   2.68724   2.70604   2.71572
 Alpha virt. eigenvalues --    2.72151   2.74619   2.76291   2.76990   2.77522
 Alpha virt. eigenvalues --    2.78667   2.81365   2.84130   2.85133   2.86850
 Alpha virt. eigenvalues --    2.87698   2.92257   2.93163   2.94441   2.95832
 Alpha virt. eigenvalues --    2.96668   2.98942   3.01244   3.02183   3.04106
 Alpha virt. eigenvalues --    3.07916   3.10480   3.16975   3.21781   3.27111
 Alpha virt. eigenvalues --    3.32318   3.39690   3.47078   3.50047   3.51216
 Alpha virt. eigenvalues --    3.76840   3.78352   3.79275   3.79850   3.80626
 Alpha virt. eigenvalues --    3.82173   3.83743   3.84862   3.87910   3.94872
 Alpha virt. eigenvalues --    3.98684   4.02496   4.11132   4.19772   4.27304
 Alpha virt. eigenvalues --    4.29846   4.31421   4.39296   5.07923   5.14984
 Alpha virt. eigenvalues --    5.67619  23.79431  23.83077  23.84187  23.89014
 Alpha virt. eigenvalues --   23.91268  23.91360  23.97405  23.97680  23.98501
 Alpha virt. eigenvalues --   49.92091
          Condensed to atoms (all electrons):
              1          2          3          4          5          6
     1  C    6.069634   0.435440   0.436840   0.327948  -0.427947  -0.008649
     2  H    0.435440   0.602061  -0.048284  -0.028203  -0.132371  -0.022577
     3  H    0.436840  -0.048284   0.505985  -0.025896   0.074276   0.016708
     4  H    0.327948  -0.028203  -0.025896   0.560221   0.028940  -0.008510
     5  C   -0.427947  -0.132371   0.074276   0.028940   8.576434   0.652814
     6  H   -0.008649  -0.022577   0.016708  -0.008510   0.652814   0.646764
     7  C    0.323481   0.035584  -0.093256   0.002751  -2.412745  -0.235525
     8  H   -0.031139  -0.007317   0.004854   0.002060  -0.031563  -0.003484
     9  H    0.045366   0.008546   0.004605  -0.003832   0.019844   0.015695
    10  C   -0.206700   0.001298  -0.002969   0.004966   0.346378  -0.027950
    11  H   -0.010668   0.000273   0.000113   0.001018  -0.007280   0.002997
    12  H    0.005541  -0.001264   0.003227  -0.000551   0.133625   0.022486
    13  C    0.001684   0.005556  -0.003799  -0.004083  -0.748743  -0.049409
    14  H   -0.001150  -0.000431   0.000393   0.000034  -0.015320  -0.000301
    15  H   -0.000965   0.001565  -0.000713  -0.000217  -0.022085  -0.002205
    16  C   -0.004554   0.001560   0.000148  -0.000657  -0.145585  -0.005971
    17  H    0.002204   0.000184   0.000053  -0.000108   0.004262  -0.000242
    18  C   -0.002555   0.000017  -0.000058  -0.000013  -0.018166  -0.001051
    19  H    0.000059   0.000013  -0.000004  -0.000002   0.000465  -0.000008
    20  H   -0.000004   0.000023  -0.000006  -0.000005  -0.001465  -0.000156
    21  H   -0.000234  -0.000090   0.000013   0.000019   0.001879   0.000160
    22  C   -0.316753   0.028138  -0.059367  -0.007730  -0.730667  -0.187901
    23  H    0.064068  -0.002775   0.001647  -0.002260   0.008227   0.021355
    24  C   -0.000164  -0.000402  -0.000026   0.000110  -0.010254   0.001554
    25  H   -0.000087  -0.000022   0.000004   0.000001  -0.001605   0.000038
    26  H    0.000056   0.000045   0.000008   0.000002   0.003772  -0.000084
    27  H   -0.000649   0.000049  -0.000155   0.000037  -0.016113  -0.001412
    28  O    0.048217  -0.003115   0.004139  -0.007124  -0.020963   0.025625
              7          8          9         10         11         12
     1  C    0.323481  -0.031139   0.045366  -0.206700  -0.010668   0.005541
     2  H    0.035584  -0.007317   0.008546   0.001298   0.000273  -0.001264
     3  H   -0.093256   0.004854   0.004605  -0.002969   0.000113   0.003227
     4  H    0.002751   0.002060  -0.003832   0.004966   0.001018  -0.000551
     5  C   -2.412745  -0.031563   0.019844   0.346378  -0.007280   0.133625
     6  H   -0.235525  -0.003484   0.015695  -0.027950   0.002997   0.022486
     7  C    8.672444   0.419869   0.445093  -0.896011  -0.095191  -0.164538
     8  H    0.419869   0.666802  -0.083751  -0.091983  -0.031871   0.017465
     9  H    0.445093  -0.083751   0.560015  -0.061658   0.020898  -0.014686
    10  C   -0.896011  -0.091983  -0.061658   6.775662   0.545921   0.465522
    11  H   -0.095191  -0.031871   0.020898   0.545921   0.671688  -0.118100
    12  H   -0.164538   0.017465  -0.014686   0.465522  -0.118100   0.743700
    13  C    0.724633  -0.005911  -0.040691  -1.041200  -0.133059  -0.141363
    14  H   -0.017555  -0.001855   0.006932  -0.092283   0.020407  -0.015968
    15  H   -0.008038   0.001658  -0.000850  -0.087384  -0.027063   0.016148
    16  C   -0.244711  -0.019228  -0.003051   0.248214   0.054651   0.017548
    17  H   -0.005362  -0.001741   0.000554  -0.011009   0.010720   0.012014
    18  C   -0.038621  -0.003536  -0.001645  -0.192583  -0.000529  -0.007613
    19  H   -0.000372  -0.000593   0.000413   0.007757   0.001184   0.002583
    20  H   -0.002326  -0.000293   0.000076  -0.000153   0.000222  -0.000672
    21  H   -0.001799   0.001584  -0.000402  -0.001563  -0.000114  -0.000848
    22  C    0.595267   0.051037  -0.113014   0.181325  -0.010074  -0.050791
    23  H   -0.079520   0.004958   0.002698  -0.023189  -0.012567   0.014816
    24  C    0.107614   0.009401  -0.006645   0.091618  -0.033853  -0.004668
    25  H    0.003718   0.000442  -0.000242   0.008135  -0.000844  -0.001735
    26  H   -0.015288  -0.000677   0.000667   0.008505   0.004079   0.001652
    27  H    0.003312   0.000139  -0.000681   0.025440   0.000679  -0.005121
    28  O   -0.077503   0.008021  -0.003344  -0.031223  -0.000521  -0.017193
             13         14         15         16         17         18
     1  C    0.001684  -0.001150  -0.000965  -0.004554   0.002204  -0.002555
     2  H    0.005556  -0.000431   0.001565   0.001560   0.000184   0.000017
     3  H   -0.003799   0.000393  -0.000713   0.000148   0.000053  -0.000058
     4  H   -0.004083   0.000034  -0.000217  -0.000657  -0.000108  -0.000013
     5  C   -0.748743  -0.015320  -0.022085  -0.145585   0.004262  -0.018166
     6  H   -0.049409  -0.000301  -0.002205  -0.005971  -0.000242  -0.001051
     7  C    0.724633  -0.017555  -0.008038  -0.244711  -0.005362  -0.038621
     8  H   -0.005911  -0.001855   0.001658  -0.019228  -0.001741  -0.003536
     9  H   -0.040691   0.006932  -0.000850  -0.003051   0.000554  -0.001645
    10  C   -1.041200  -0.092283  -0.087384   0.248214  -0.011009  -0.192583
    11  H   -0.133059   0.020407  -0.027063   0.054651   0.010720  -0.000529
    12  H   -0.141363  -0.015968   0.016148   0.017548   0.012014  -0.007613
    13  C    8.061312   0.458190   0.445419  -1.220166  -0.120929   0.364752
    14  H    0.458190   0.594405  -0.071937   0.029115   0.020245   0.006513
    15  H    0.445419  -0.071937   0.658186  -0.052115  -0.014301   0.020300
    16  C   -1.220166   0.029115  -0.052115   6.646046   0.556558  -0.144599
    17  H   -0.120929   0.020245  -0.014301   0.556558   0.623522  -0.061630
    18  C    0.364752   0.006513   0.020300  -0.144599  -0.061630   5.677306
    19  H   -0.090121   0.004692   0.001650   0.093334   0.016620   0.374714
    20  H    0.043905  -0.002695   0.001508  -0.086140  -0.012684   0.400754
    21  H   -0.015311   0.003040   0.000395  -0.050997  -0.013874   0.409489
    22  C    0.135431   0.000147   0.003894   0.014950  -0.004055   0.004403
    23  H   -0.013427  -0.000933  -0.000466  -0.010642   0.000851  -0.000136
    24  C    0.094788  -0.072220   0.022284  -0.113987  -0.126489  -0.162884
    25  H    0.034347  -0.004390  -0.002172  -0.095521  -0.007239  -0.005819
    26  H   -0.080035   0.012564  -0.003292   0.072735   0.013672  -0.009087
    27  H   -0.034063   0.001844   0.003051  -0.043755  -0.015342   0.011586
    28  O   -0.008237   0.000490  -0.000655   0.000480  -0.000014  -0.000046
             19         20         21         22         23         24
     1  C    0.000059  -0.000004  -0.000234  -0.316753   0.064068  -0.000164
     2  H    0.000013   0.000023  -0.000090   0.028138  -0.002775  -0.000402
     3  H   -0.000004  -0.000006   0.000013  -0.059367   0.001647  -0.000026
     4  H   -0.000002  -0.000005   0.000019  -0.007730  -0.002260   0.000110
     5  C    0.000465  -0.001465   0.001879  -0.730667   0.008227  -0.010254
     6  H   -0.000008  -0.000156   0.000160  -0.187901   0.021355   0.001554
     7  C   -0.000372  -0.002326  -0.001799   0.595267  -0.079520   0.107614
     8  H   -0.000593  -0.000293   0.001584   0.051037   0.004958   0.009401
     9  H    0.000413   0.000076  -0.000402  -0.113014   0.002698  -0.006645
    10  C    0.007757  -0.000153  -0.001563   0.181325  -0.023189   0.091618
    11  H    0.001184   0.000222  -0.000114  -0.010074  -0.012567  -0.033853
    12  H    0.002583  -0.000672  -0.000848  -0.050791   0.014816  -0.004668
    13  C   -0.090121   0.043905  -0.015311   0.135431  -0.013427   0.094788
    14  H    0.004692  -0.002695   0.003040   0.000147  -0.000933  -0.072220
    15  H    0.001650   0.001508   0.000395   0.003894  -0.000466   0.022284
    16  C    0.093334  -0.086140  -0.050997   0.014950  -0.010642  -0.113987
    17  H    0.016620  -0.012684  -0.013874  -0.004055   0.000851  -0.126489
    18  C    0.374714   0.400754   0.409489   0.004403  -0.000136  -0.162884
    19  H    0.560837  -0.032971  -0.047541  -0.000127  -0.000046  -0.038524
    20  H   -0.032971   0.562550  -0.018866   0.000115  -0.000049  -0.007268
    21  H   -0.047541  -0.018866   0.582865   0.000081   0.000080   0.025116
    22  C   -0.000127   0.000115   0.000081   6.045282   0.236907   0.011105
    23  H   -0.000046  -0.000049   0.000080   0.236907   0.724573   0.003010
    24  C   -0.038524  -0.007268   0.025116   0.011105   0.003010   5.674462
    25  H    0.002378   0.000356   0.001398   0.000849   0.000087   0.419087
    26  H    0.011532   0.001113  -0.002391  -0.001804   0.000222   0.353130
    27  H   -0.005659   0.002637  -0.002190   0.008261  -0.005647   0.413992
    28  O   -0.000005   0.000007   0.000000   0.388869  -0.051335   0.000506
             25         26         27         28
[...]
 004,0.00000569,0.00014889,0.00003456,-0.00003739,0.00029611,0.00044723
 ,-0.00091110,-0.01790934,-0.00272118,-0.00075044,0.00002571,0.00023621
 ,-0.00053526,-0.02742400,-0.04992782,0.00063852,0.02977244,0.00432236,
 0.00051246,-0.01574022,-0.00223587,-0.00164786,0.03220191,0.05105461,0
 .01029954,-0.02509524,-0.00214417,-0.00581939,-0.00284791,-0.00347879,
 0.00019448,-0.00059674,-0.00186543,-0.00116381,-0.00203754,0.00087856,
 -0.07958742,-0.00074828,0.00043535,-0.00475272,0.00739532,-0.00113862,
 -0.01671747,0.02954795,0.00633604,-0.00371500,-0.00039912,0.00192805,0
 .00198375,0.00019672,-0.00155818,0.00079919,0.00209801,0.00018550,-0.0
 0028331,0.00014695,-0.00014050,-0.00175658,-0.00105574,0.00037541,-0.0
 0051950,-0.00026165,0.00037826,0.00014700,0.00008745,-0.00018149,0.000
 25882,-0.00045732,-0.00028183,-0.00008565,-0.00015222,-0.00027399,-0.0
 0004259,0.00003946,-0.00000589,0.00008491,0.00005395,0.00013032,-0.000
 00904,0.00001883,-0.00005539,0.00013419,0.00001641,0.00000599,-0.00001
 079,-0.00005084,-0.00001992,0.79133322,-0.00268092,-0.02876550,-0.0079
 8015,-0.00111569,-0.00017878,-0.00087516,0.00097104,0.00081036,0.00201
 531,0.00179651,0.00087350,-0.00030584,-0.00483162,-0.16975805,-0.01894
 573,0.00546336,-0.01009269,-0.00084868,0.01650724,0.00491591,-0.006060
 69,-0.00475867,0.00131411,0.00311527,-0.00184762,0.00005972,0.00243381
 ,0.00122194,0.00334893,0.00179488,0.00005842,-0.00011303,-0.00012031,-
 0.00071993,-0.00218238,-0.00041500,-0.00125438,-0.00179824,-0.00148732
 ,0.00004082,0.00008921,0.00009461,0.00069278,-0.00030591,-0.00030302,0
 .00000589,0.00033239,0.00066888,-0.00001675,-0.00003469,-0.00003384,-0
 .00023044,-0.00024187,-0.00025826,0.00002527,0.00001276,0.00005386,-0.
 00022290,0.00001657,0.00002075,0.00008220,-0.00004188,-0.00001308,-0.1
 4900778,0.54942229,0.00398596,-0.01773511,-0.00197288,-0.00262978,-0.0
 0168179,-0.00119397,0.00044591,-0.00114191,-0.00053671,-0.00016035,0.0
 0026303,0.00082081,0.00066062,-0.02347437,-0.09082497,-0.01068721,0.03
 438751,0.00219646,0.00515939,-0.01712213,-0.00316049,0.00288335,-0.000
 24539,-0.00201229,0.00102798,-0.00115343,-0.00085568,0.00066475,0.0023
 1526,0.00041443,-0.00007929,-0.00004517,0.00005041,-0.00025281,-0.0016
 9603,0.00039683,-0.00038370,-0.00096227,0.00002141,0.00005851,0.000091
 15,-0.00012655,0.00024720,-0.00011024,-0.00023514,-0.00013646,0.000139
 32,-0.00006819,-0.00001726,0.00001102,0.00000357,-0.00000482,-0.000031
 03,0.00004529,-0.00000069,0.00001413,-0.00002416,0.00003860,0.00001693
 ,0.00000547,0.00000233,-0.00003012,-0.00001709,0.26094631,0.01715479,0
 .35732429,-0.00006161,0.00185602,-0.00028875,0.00046911,0.00029111,0.0
 0022591,-0.00017546,0.00001699,0.00020230,-0.00000678,0.00019586,-0.00
 011314,0.00944423,0.00594819,-0.00251725,-0.00015616,0.00003182,-0.000
 03403,0.00023051,-0.00292782,-0.00037403,0.00072067,-0.00007095,-0.000
 30296,-0.00011907,-0.00008566,0.00009003,-0.00152402,-0.00031704,0.000
 10902,0.00006233,-0.00004526,-0.00005594,-0.00131237,0.00144983,0.0004
 8633,0.00014923,0.00030093,0.00010294,-0.00000585,-0.00001156,0.000010
 86,-0.00009125,0.00011102,0.00009069,0.00002026,-0.00002082,-0.0000445
 5,0.00000341,0.00000006,0.00000285,0.00001466,0.00001817,0.00001237,-0
 .00000118,-0.00000363,0.00000119,0.00000858,-0.00000337,-0.00000331,-0
 .00000744,0.00000857,0.00000286,-0.12056493,-0.08084545,-0.05600295,0.
 15288243,0.00404585,-0.00444006,0.00008258,-0.00138010,-0.00107057,-0.
 00096738,-0.00003718,0.00004451,-0.00017587,-0.00008961,0.00021333,0.0
 0023387,-0.01894078,-0.01085379,-0.01809724,-0.00015194,0.00114189,0.0
 0121262,-0.00065141,-0.00081706,0.00012438,0.00051417,0.00004767,-0.00
 006984,0.00011084,-0.00003142,-0.00012862,-0.00027003,-0.00104354,-0.0
 0030902,0.00007784,-0.00001966,0.00004318,0.00072706,0.00108446,-0.000
 06880,0.00042321,0.00063108,0.00014411,-0.00005958,-0.00004406,0.00006
 180,-0.00028820,0.00011395,0.00015414,0.00008389,-0.00000969,-0.000004
 97,0.00001180,-0.00001029,0.00000285,0.00000262,0.00000109,-0.00000968
 ,-0.00000025,-0.00000534,0.00000961,-0.00001739,-0.00000738,-0.0000041
 7,-0.00000094,0.00001365,0.00000467,-0.07320337,-0.14830628,-0.0644193
 4,0.07935474,0.14036675,0.00045514,-0.00116136,0.00226581,-0.00047516,
 -0.00015877,-0.00014954,0.00008562,0.00048590,-0.00000139,-0.00001208,
 0.00002818,-0.00023162,-0.00922097,-0.00466188,0.01059685,0.00109539,-
 0.00347691,0.00022860,-0.00104694,0.00272107,0.00076208,-0.00045718,0.
 00020897,0.00024837,0.00020632,0.00021708,-0.00025563,-0.00024650,-0.0
 0092236,-0.00004658,-0.00003916,-0.00002704,-0.00003817,0.00040808,0.0
 0034985,0.00005758,0.00023643,0.00033993,0.00001014,-0.00001118,-0.000
 03205,0.00001409,-0.00010618,0.00008525,0.00007537,0.00003821,-0.00002
 132,0.00002309,0.00000204,0.00000361,-0.00000720,-0.00000214,0.0000058
 4,-0.00001355,0.00000238,-0.00000349,0.00000353,-0.00001311,-0.0000064
 5,-0.00000202,-0.00000092,0.00001121,0.00000510,-0.05296001,-0.0683393
 6,-0.10916182,0.09174454,0.07614933,0.09191943,-0.00002828,0.00002897,
 0.00003408,0.00001766,0.00001795,-0.00000075,0.00001206,-0.00000318,-0
 .00000215,-0.00002631,-0.00000825,0.00000181,-0.00004690,0.00020445,0.
 00002434,0.00000458,-0.00001815,0.00002014,0.00000097,-0.00019762,0.00
 006733,-0.00002327,0.00026797,0.00007369,0.00006000,0.00001444,0.00001
 721,0.00058609,-0.00076058,-0.00050062,-0.00007514,-0.00022395,0.00022
 558,-0.00081367,-0.00040439,-0.00025327,-0.00139107,-0.03050640,-0.005
 08256,0.00109826,0.00029473,0.00089253,-0.00504852,-0.00231239,-0.0025
 4715,-0.07759899,-0.00354813,-0.00064276,-0.00009897,0.00098460,0.0001
 2947,-0.00112218,0.02921869,0.00491477,0.00090338,-0.00037328,-0.00068
 487,0.00066112,0.00093516,0.00010024,-0.00446634,0.00266476,0.00319551
 ,-0.00016025,-0.00033975,-0.00010421,0.00004465,0.00006044,0.00002971,
 0.56766549,0.00005254,-0.00002489,-0.00004112,-0.00000581,-0.00000213,
 -0.00000130,-0.00000304,0.00000135,0.00000146,0.00001828,0.00001286,0.
 00000711,0.00010097,0.00005869,0.00010261,-0.00000813,0.00000589,-0.00
 000164,0.00052203,-0.00033096,-0.00038930,-0.00014950,-0.00005904,-0.0
 0005736,-0.00000115,0.00000955,0.00000285,-0.00028049,0.00094775,0.000
 40036,-0.00004734,-0.00005617,0.00006310,-0.00007600,-0.00055186,-0.00
 004218,-0.00644738,-0.01366402,-0.00443736,0.00131630,0.00118618,0.000
 86104,-0.00049866,0.00113368,0.00040292,-0.00141826,-0.17441621,-0.011
 92722,-0.00029053,-0.01898728,-0.00242863,0.00533389,-0.01690629,-0.00
 556366,-0.00128184,0.00120311,0.00091655,-0.00125395,0.00072223,0.0006
 7306,0.00051702,0.00073817,-0.00044297,0.00006225,0.00013048,0.0000469
 3,-0.00000167,-0.00003435,-0.00001540,-0.00759176,0.45528703,0.0000039
 4,-0.00000629,0.00002422,0.00000357,-0.00000075,-0.00000804,-0.0000025
 0,-0.00000124,-0.00000904,-0.00001945,0.00000182,-0.00000043,-0.000009
 23,0.00010189,-0.00002910,0.00001730,0.00000819,-0.00000807,0.00035561
 ,-0.00053837,0.00008567,-0.00014704,-0.00001765,-0.00012190,-0.0000294
 6,0.00003720,-0.00006445,-0.00051619,0.00079413,0.00002668,-0.00013422
 ,-0.00013022,0.00011207,0.00038149,-0.00070775,0.00028616,-0.00254574,
 -0.01699248,-0.00365579,0.00039432,-0.00122951,0.00049200,-0.00270631,
 -0.00152613,-0.00099943,0.00084543,-0.00906162,-0.07954818,0.00078355,
 0.02972188,0.00455715,0.00196620,-0.02092727,-0.00388407,-0.00043013,-
 0.00097119,0.00057628,-0.00105743,0.00069531,0.00050817,0.00267359,-0.
 00204163,-0.00174485,0.00025972,-0.00000028,0.00019443,-0.00000644,-0.
 00006107,-0.00004991,-0.00285331,-0.00792319,0.55845837,-0.00002454,0.
 00001659,0.00003330,0.00000910,-0.00000182,-0.00000439,0.00000522,-0.0
 0000054,-0.00000363,-0.00002987,-0.00000707,-0.00000105,0.00000067,0.0
 0003502,-0.00005478,0.00001230,0.00000415,0.00000275,0.00015098,-0.000
 19658,0.00003548,-0.00011592,-0.00003864,-0.00004748,-0.00001301,0.000
 01896,-0.00000756,-0.00004880,0.00033643,-0.00019022,-0.00000556,-0.00
 010269,0.00004573,0.00034253,-0.00030472,-0.00005710,0.00091369,-0.000
 10420,0.00088336,0.00005687,0.00014873,0.00005555,-0.00003898,-0.00007
 847,-0.00010563,-0.00130460,0.00030681,0.00019114,0.00007264,-0.000530
 78,0.00030365,0.00071169,0.00088628,0.00048135,-0.00003397,-0.00002692
 ,0.00002604,0.00056812,0.00000917,-0.00012437,0.00023716,-0.00009412,0
 .00013609,0.00017566,-0.00007613,0.00008483,-0.00000174,-0.00004066,-0
 .00003254,-0.23786323,-0.05632142,-0.09928105,0.25805666,-0.00002257,0
 .00001656,0.00002582,0.00000801,0.00000444,-0.00000167,0.00000348,-0.0
 0000226,-0.00000312,-0.00001787,-0.00000699,-0.00000131,-0.00005722,0.
 00006206,-0.00002265,0.00001063,-0.00000263,0.00000273,-0.00015469,0.0
 0009045,0.00012992,0.00005859,0.00010369,0.00004079,0.00000672,-0.0000
 0579,-0.00001443,0.00066947,-0.00025972,-0.00033200,-0.00005061,0.0000
 1684,0.00004925,-0.00016616,0.00027711,0.00011264,0.00173621,-0.006652
 99,-0.00008803,0.00017848,0.00012095,-0.00012703,-0.00180289,-0.000758
 66,-0.00097272,-0.02869677,-0.00850160,-0.01591334,0.00002141,0.001145
 34,0.00066297,-0.00149138,0.00146921,0.00015213,0.00017766,-0.00005670
 ,-0.00000902,0.00087134,-0.00015742,-0.00006572,0.00003996,0.00028040,
 0.00044376,-0.00000132,-0.00015344,-0.00000287,0.00001245,0.00001001,0
 .00000861,-0.05505647,-0.06212829,-0.02822062,0.06142299,0.06950642,-0
 .00000870,0.00000875,0.00000676,0.00000335,-0.00000056,0.00000001,0.00
 000235,-0.00000026,-0.00000042,-0.00000671,-0.00000280,0.00000004,-0.0
 0001807,0.00001071,-0.00000712,0.00000032,-0.00000191,0.00000156,-0.00
 012207,0.00015895,0.00003519,0.00007836,0.00003289,0.00004112,0.000019
 72,0.00000315,0.00001962,0.00034580,-0.00016675,0.00005025,-0.00004980
 ,-0.00001358,0.00000893,-0.00017490,0.00025238,-0.00006300,0.00054840,
 -0.00139475,0.00039372,0.00033789,0.00013415,0.00047999,-0.00048090,-0
 .00035564,0.00017756,-0.00306477,-0.00038958,-0.00302432,0.00042714,-0
 .00018475,0.00041157,-0.00069209,0.00023636,-0.00007803,-0.00010382,-0
 .00006388,-0.00009411,0.00046414,-0.00034726,0.00013566,0.00026567,0.0
 0019508,0.00007401,-0.00001032,-0.00004850,-0.00001611,-0.00000040,0.0
 0000427,0.00000226,-0.09859114,-0.02882424,-0.09787317,0.10894634,0.03
 283329,0.10258994,0.00000180,-0.00000347,-0.00000480,-0.00000241,0.000
 00331,0.00000089,-0.00000295,-0.00000166,-0.00000118,0.00000606,0.0000
 0050,-0.00000041,-0.00000740,-0.00000669,0.00000956,0.00000463,0.00000
 398,-0.00000748,0.00000557,-0.00000372,-0.00000444,0.00000637,-0.00000
 225,-0.00000334,-0.00003047,-0.00001418,-0.00003821,-0.00017700,0.0000
 0511,-0.00006665,0.00007159,0.00016232,-0.00006360,-0.00005794,-0.0000
 2814,0.00012749,0.00037403,-0.00050099,0.00119182,0.00016886,-0.000007
 79,-0.00019016,-0.00001328,0.00013304,-0.00008850,-0.00100749,-0.00098
 956,0.00104849,0.00065502,-0.00038437,0.00001549,0.00007905,0.00036810
 ,-0.00089149,0.00021156,0.00013614,0.00021518,-0.00001154,0.00006545,-
 0.00013796,-0.00008480,-0.00015485,0.00015762,-0.00000873,-0.00000584,
 -0.00000131,0.00000273,0.00000218,0.00001420,-0.04804958,0.00683741,-0
 .01187052,-0.00086897,0.01407884,-0.02488878,0.04679041,-0.00000621,0.
 00000136,0.00000624,0.00000070,0.00000130,0.00000188,-0.00000163,0.000
 00050,-0.00000199,-0.00000107,-0.00000196,-0.00000152,-0.00001332,-0.0
 0000488,-0.00001198,0.00000824,-0.00000008,-0.00000733,-0.00004811,0.0
 0003531,0.00003406,0.00000301,0.00000363,0.00000734,-0.00003956,-0.000
 00684,-0.00002765,-0.00016745,-0.00004182,-0.00011412,0.00019353,0.000
 04695,-0.00013880,-0.00008106,-0.00003935,0.00004102,0.00101232,0.0015
 1856,0.00154233,-0.00054404,0.00013853,-0.00091625,0.00023386,0.000466
 11,-0.00032741,0.00166904,-0.01834936,0.03038417,-0.00016676,-0.006522
 83,-0.00154840,-0.00081377,0.00135372,0.00130139,0.00048284,0.00025156
 ,-0.00108305,0.00005628,-0.00005425,-0.00009430,-0.00019117,0.00037706
 ,-0.00035565,-0.00000368,-0.00002219,-0.00000477,0.00000070,0.00000469
 ,0.00000341,0.00670400,-0.10243609,0.10498818,0.00040650,0.00359224,-0
 .00763237,-0.00705492,0.11504328,0.00001386,-0.00001062,-0.00001317,-0
 .00000350,-0.00000410,-0.00000090,0.00000128,0.00000208,0.00000693,0.0
 0000898,0.00000451,0.00000099,0.00002206,-0.00000887,-0.00000366,-0.00
 001186,-0.00000868,0.00001224,-0.00003884,0.00001411,-0.00005100,0.000
 01121,-0.00000012,0.00001258,0.00003220,0.00000850,0.00004674,0.000134
 56,0.00012645,0.00009513,-0.00004159,-0.00012773,0.00002964,0.00002083
 ,0.00009470,-0.00018145,-0.00001131,-0.00037375,0.00091350,0.00042772,
 0.00030731,0.00027717,0.00015618,0.00004611,0.00022550,0.00035032,-0.0
 0165049,0.00318489,-0.00003177,-0.00122029,0.00140481,-0.00009763,-0.0
 0033068,0.00093826,-0.00045667,0.00033745,0.00029154,0.00006622,0.0000
 1259,-0.00008367,-0.00010338,0.00008651,0.00023265,-0.00007758,0.00009
 304,-0.00003520,-0.00000523,0.00001360,-0.00000430,-0.01196207,0.10546
 695,-0.24231576,-0.00015839,0.00595687,-0.01240794,0.01355726,-0.11696
 889,0.26340571,0.00001887,-0.00000841,-0.00001452,-0.00000417,-0.00000
 269,0.00000085,-0.00000352,0.00000121,-0.00000100,0.00001128,0.0000053
 5,0.00000191,0.00004279,-0.00000350,0.00003446,-0.00000453,0.00000499,
 -0.00000503,0.00012802,-0.00017052,-0.00010445,-0.00006168,-0.00005012
 ,-0.00004005,-0.00000807,-0.00000021,-0.00001128,-0.00101361,-0.000381
 65,-0.00021552,-0.00000376,0.00002558,0.00005175,-0.00119514,-0.001231
 44,-0.00038174,0.00000749,0.00042003,-0.00016731,-0.00002392,-0.000031
 81,-0.00004024,0.00012121,0.00008365,0.00013074,0.00131479,-0.00062831
 ,-0.00203871,0.00018044,0.00056876,-0.00021260,0.00056371,0.00058195,-
 0.00045058,-0.00002837,-0.00012993,-0.00000637,0.00048137,-0.00022140,
 0.00001022,0.00014817,-0.00004289,0.00029175,-0.00001433,0.00006398,0.
 00000139,-0.00000655,0.00000265,0.00000310,-0.19425659,0.06094266,0.11
 413187,-0.02080302,0.00826413,0.01678250,0.00192900,-0.00163911,-0.001
 87473,0.21244931,0.00001949,-0.00001738,-0.00001914,-0.00000689,0.0000
 0018,-0.00000006,-0.00000028,0.00000047,0.00000651,0.00002039,0.000005
 55,-0.00000075,-0.00004022,-0.00002051,0.00001704,-0.00001714,-0.00001
 336,0.00000664,-0.00032190,0.00026704,0.00010175,0.00016951,0.00008509
 ,0.00006709,0.00006887,-0.00000667,0.00005742,-0.00017086,-0.00035507,
 -0.00013569,-0.00006905,-0.00019812,0.00008951,-0.00086606,0.00038035,
 -0.00010481,0.00069529,0.00104728,0.00002111,-0.00013053,-0.00005186,-
 0.00000331,0.00008636,0.00005300,0.00018975,0.02586326,-0.00798736,-0.
 01920551,0.00008796,0.00126595,0.00067012,-0.00181776,-0.00677064,-0.0
 0011560,-0.00017599,0.00008637,-0.00019261,-0.00009378,0.00010060,0.00
 030179,0.00168388,-0.00080274,-0.00127830,-0.00016645,0.00005942,-0.00
 007656,-0.00000263,0.00005138,0.00001683,0.05981191,-0.07179635,-0.046
 05025,-0.00573644,0.00191702,0.00553740,-0.01264417,0.00463622,0.00819
 898,-0.06638623,0.07812858,0.00000507,0.00000239,-0.00001934,-0.000002
 22,0.00000730,0.00000384,-0.00000165,-0.00000323,0.00000152,0.00001676
 ,0.00000021,0.00000057,-0.00003423,-0.00000971,0.00005661,-0.00000325,
 -0.00000087,-0.00000514,-0.00029749,0.00041297,0.00000395,0.00016518,0
 .00011477,0.00009512,0.00000836,-0.00004074,-0.00000940,0.00049693,-0.
 00079422,0.00018989,-0.00002790,0.00017409,-0.00008961,-0.00063225,0.0
 0051596,0.00034495,0.00077258,-0.00011114,-0.00023178,0.00004201,-0.00
 005338,-0.00002906,-0.00013560,0.00003233,0.00004382,0.00188880,-0.000
 13338,-0.00323064,-0.00041491,-0.00026912,0.00061383,-0.00068456,-0.00
 126951,0.00070180,-0.00029080,0.00019790,0.00045842,0.00026771,0.00008
 399,0.00001853,0.00047776,-0.00013370,0.00023855,-0.00017491,-0.000075
 57,-0.00011117,0.00001757,0.00004440,0.00004755,0.11346693,-0.04683846
 ,-0.13488161,-0.01109587,0.00537585,0.00913132,0.02192837,-0.00907295,
 -0.01602847,-0.12587997,0.05183516,0.14263196,-0.00233406,-0.00288133,
 0.00017503,0.00161854,-0.00031877,0.00047987,0.00047850,0.00056183,0.0
 0153051,0.00178029,0.00107624,-0.00081508,-0.01867191,0.03072761,-0.01
 320723,-0.00007467,0.00297940,0.00191671,0.00502921,0.00060482,-0.0027
 1966,-0.00109148,0.00021611,0.00102599,-0.00047469,-0.00061556,0.00116
 957,-0.00102033,-0.00102578,0.00050143,0.00024308,-0.00015911,0.000099
 96,0.00037998,0.00102503,-0.00023751,0.00021737,0.00029462,-0.00042699
 ,-0.00009930,-0.00006918,0.00016489,-0.00015359,0.00015263,0.00015916,
 0.00015037,0.00009572,0.00033719,0.00002431,-0.00003131,-0.00001332,-0
 .00010062,-0.00008864,-0.00015586,0.00001542,-0.00001156,0.00005275,-0
 .00015668,-0.00001525,-0.00000481,0.00003274,0.00002864,0.00001403,-0.
 57019926,0.22102442,-0.20574627,-0.04001840,0.00971416,-0.02969710,0.0
 0001505,-0.00002641,-0.00020759,-0.00016109,-0.00004240,-0.00000951,0.
 00001588,0.00000085,0.00007184,0.00003082,0.00013946,0.00012159,0.6245
 2452,0.00172602,0.00284346,0.00217810,0.00106328,0.00040080,0.00045813
 ,-0.00049861,-0.00026738,-0.00005380,0.00006029,-0.00027339,-0.0006392
 0,0.04712768,-0.01563692,0.01318995,0.00212451,-0.00499432,0.00038248,
 -0.00257498,-0.00754042,0.00267391,0.00251478,0.00022709,-0.00176913,0
 .00016566,0.00054957,-0.00095248,-0.00021304,-0.00094806,-0.00080838,-
 0.00007147,0.00007670,-0.00004472,0.00024668,0.00057891,0.00028203,0.0
 0042536,0.00052671,0.00057249,0.00002876,-0.00001020,-0.00009963,-0.00
 022311,0.00012908,0.00008775,-0.00005679,-0.00012691,-0.00033087,-0.00
 000370,0.00002521,0.00000975,0.00010948,0.00011065,0.00013553,-0.00001
 249,-0.00000321,-0.00003628,0.00012372,-0.00000247,-0.00000430,-0.0000
 4249,0.00001734,0.00000331,0.21642190,-0.19939075,0.07549246,-0.005260
 58,0.02296902,-0.00180869,0.00013625,-0.00004302,0.00005892,0.00006957
 ,0.00007376,0.00001945,0.00000625,0.00000860,-0.00006554,-0.00003672,-
 0.00006445,0.00000864,-0.26335621,0.20076460,0.00013231,-0.00025156,-0
 .00212143,0.00085652,-0.00009983,0.00071951,0.00005886,0.00032971,0.00
 136022,0.00041327,0.00008442,-0.00022806,-0.00848505,0.00493915,0.0220
 3148,0.00201542,-0.00451507,-0.00058111,0.00246140,0.00359736,-0.00167
 500,-0.00124112,-0.00008907,0.00104309,-0.00057607,0.00000621,0.000731
 84,-0.00035884,-0.00084964,0.00033927,0.00008082,0.00000104,-0.0000219
 9,0.00019792,0.00078503,-0.00018284,0.00006006,0.00033468,-0.00023189,
 -0.00005238,-0.00005507,0.00010801,-0.00011191,0.00004213,0.00010632,0
 .00007436,-0.00000691,0.00015621,0.00001477,-0.00001818,0.00000259,-0.
 00003704,-0.00002051,-0.00007433,0.00000242,-0.00001052,0.00002794,-0.
 00005857,-0.00000595,0.00000192,0.00000937,0.00001439,0.00000688,-0.20
 749250,0.07866558,-0.15112097,-0.03335047,0.00603059,0.00370188,0.0000
 3149,-0.00001094,-0.00012738,-0.00006151,-0.00002010,0.00000471,-0.000
 00752,-0.00000258,0.00004725,0.00000360,0.00006548,0.00005400,0.245420
 39,-0.08893984,0.12592189\\0.00000176,-0.00000349,0.00000006,0.0000023
 2,-0.00000333,-0.00000109,-0.00000027,-0.00000241,0.00000131,0.0000013
 8,-0.00000548,0.00000100,0.00000004,-0.00000273,0.00000222,0.00000227,
 -0.00000480,0.00000025,0.00000061,-0.00000056,-0.00000001,0.00000122,-
 0.00000034,-0.00000168,-0.00000067,0.00000043,0.00000081,0.00000032,-0
 .00000046,0.00000011,0.00000140,-0.00000197,-0.00000077,-0.00000070,-0
 .00000114,0.00000159,-0.00000004,0.00000195,-0.00000116,-0.00000120,0.
 00000331,-0.00000036,0.00000097,0.00000237,-0.00000281,-0.00000004,0.0
 0000224,-0.00000134,0.00000113,0.00000096,-0.00000209,-0.00000007,0.00
 000483,-0.00000288,-0.00000124,0.00000627,-0.00000223,-0.00000004,0.00
 000508,-0.00000309,0.00000099,0.00000503,-0.00000448,-0.00000145,-0.00
 000446,0.00000294,-0.00000082,-0.00000423,0.00000374,-0.00000160,0.000
 00228,0.00000072,-0.00000153,0.00000235,0.00000063,-0.00000272,0.00000
 328,0.00000168,-0.00000149,0.00000025,0.00000191,-0.00000054,-0.000005
 20,0.00000501\\\@


 JUST WHEN YOU THINK YOU'VE GOT THE WORLD ON A STRING,
 YOU FIND OUT IT'S YOUR LEASH.
 Job cpu time:  0 days  1 hours 16 minutes 21.9 seconds.
 File lengths (MBytes):  RWF=    297 Int=      0 D2E=      0 Chk=     19 Scr=      1
 Normal termination of Gaussian 09 at Thu Feb  6 19:43:41 2014.
