 Entering Gaussian System, Link 0=g09
 Initial command:
 /usr/caen/gaussian-09revc/g09/l1.exe /scratch/avioli_flux/hetanjin/scratch/Gau-9774.inp -scrdir=/scratch/avioli_flux/hetanjin/scratch/
 Entering Link 1 = /usr/caen/gaussian-09revc/g09/l1.exe PID=      9775.
  
 Copyright (c) 1988,1990,1992,1993,1995,1998,2003,2009,2011,
            Gaussian, Inc.  All Rights Reserved.
  
 This is part of the Gaussian(R) 09 program.  It is based on
 the Gaussian(R) 03 system (copyright 2003, Gaussian, Inc.),
 the Gaussian(R) 98 system (copyright 1998, Gaussian, Inc.),
 the Gaussian(R) 94 system (copyright 1995, Gaussian, Inc.),
 the Gaussian 92(TM) system (copyright 1992, Gaussian, Inc.),
 the Gaussian 90(TM) system (copyright 1990, Gaussian, Inc.),
 the Gaussian 88(TM) system (copyright 1988, Gaussian, Inc.),
 the Gaussian 86(TM) system (copyright 1986, Carnegie Mellon
 University), and the Gaussian 82(TM) system (copyright 1983,
 Carnegie Mellon University). Gaussian is a federally registered
 trademark of Gaussian, Inc.
  
 This software contains proprietary and confidential information,
 including trade secrets, belonging to Gaussian, Inc.
  
 This software is provided under written license and may be
 used, copied, transmitted, or stored only in accord with that
 written license.
  
 The following legend is applicable only to US Government
 contracts under FAR:
  
                    RESTRICTED RIGHTS LEGEND
  
 Use, reproduction and disclosure by the US Government is
 subject to restrictions as set forth in subparagraphs (a)
 and (c) of the Commercial Computer Software - Restricted
 Rights clause in FAR 52.227-19.
  
 Gaussian, Inc.
 340 Quinnipiac St., Bldg. 40, Wallingford CT 06492
  
  
 ---------------------------------------------------------------
 Warning -- This program may not be used in any manner that
 competes with the business of Gaussian, Inc. or will provide
 assistance to any competitor of Gaussian, Inc.  The licensee
 of this program is prohibited from giving any competitor of
 Gaussian, Inc. access to this program.  By using this program,
 the user acknowledges that Gaussian, Inc. is engaged in the
 business of creating and licensing software in the field of
 computational chemistry and represents and warrants to the
 licensee that it is not a competitor of Gaussian, Inc. and that
 it will not use this program in any manner prohibited above.
 ---------------------------------------------------------------
  

 Cite this work as:
 Gaussian 09, Revision C.01,
 M. J. Frisch, G. W. Trucks, H. B. Schlegel, G. E. Scuseria, 
 M. A. Robb, J. R. Cheeseman, G. Scalmani, V. Barone, B. Mennucci, 
 G. A. Petersson, H. Nakatsuji, M. Caricato, X. Li, H. P. Hratchian, 
 A. F. Izmaylov, J. Bloino, G. Zheng, J. L. Sonnenberg, M. Hada, 
 M. Ehara, K. Toyota, R. Fukuda, J. Hasegawa, M. Ishida, T. Nakajima, 
 Y. Honda, O. Kitao, H. Nakai, T. Vreven, J. A. Montgomery, Jr., 
 J. E. Peralta, F. Ogliaro, M. Bearpark, J. J. Heyd, E. Brothers, 
 K. N. Kudin, V. N. Staroverov, T. Keith, R. Kobayashi, J. Normand, 
 K. Raghavachari, A. Rendell, J. C. Burant, S. S. Iyengar, J. Tomasi, 
 M. Cossi, N. Rega, J. M. Millam, M. Klene, J. E. Knox, J. B. Cross, 
 V. Bakken, C. Adamo, J. Jaramillo, R. Gomperts, R. E. Stratmann, 
 O. Yazyev, A. J. Austin, R. Cammi, C. Pomelli, J. W. Ochterski, 
 R. L. Martin, K. Morokuma, V. G. Zakrzewski, G. A. Voth, 
 P. Salvador, J. J. Dannenberg, S. Dapprich, A. D. Daniels, 
 O. Farkas, J. B. Foresman, J. V. Ortiz, J. Cioslowski, 
 and D. J. Fox, Gaussian, Inc., Wallingford CT, 2010.
 
 ******************************************
 Gaussian 09:  EM64L-G09RevC.01 23-Sep-2011
                 6-Feb-2014 
 ******************************************
 %mem=30GB
 %nprocshared=8
 Will use up to    8 processors via shared memory.
 %chk=C9H18OOH_1_26_h.chk
 --------------------------------------------------
 #p stable=(opt,xqc) ub3lyp/6-311++g(d,p) guess=mix
 --------------------------------------------------
 1/38=1/1;
 2/12=2,17=6,18=5,40=1/2;
 3/5=4,6=6,7=1111,11=2,16=1,25=1,30=1,74=-5,116=2/1,2,3;
 4/13=-1/1;
 5/5=2,38=5/2;
 6/7=2,8=2,9=2,10=2,28=1/1;
 8/6=1,10=90,11=11/1;
 9/8=-3,42=1,46=1/14;
 5/5=2,8=3,13=1,17=40,38=5/2,8(-2);
 6/7=2,8=2,9=2,10=2,28=1/1;
 99/5=1,9=1/99;
 Leave Link    1 at Thu Feb  6 23:59:24 2014, MaxMem= 4026531840 cpu:       0.7
 (Enter /usr/caen/gaussian-09revc/g09/l101.exe)
 -----------------------------------------------------------------
 C9H18OOH_1_26_h using B3LYP/6-311++g(d,p) to do opt and cal. freq
 -----------------------------------------------------------------
 Charge =  0 Multiplicity = 2
 Symbolic Z-Matrix:
 C                    -3.17301  -1.66954  -0.19397 
 H                    -2.87617  -2.71161  -0.33638 
 H                    -3.39945  -1.24766  -1.17651 
 H                    -4.09526  -1.66148   0.39469 
 C                    -2.05413  -0.87986   0.50238 
 H                    -1.87109  -1.34161   1.4836 
 C                    -0.73961  -0.93993  -0.29882 
 H                    -0.55589  -1.99184  -0.54858 
 H                    -0.8744   -0.42299  -1.25598 
 C                     0.49652  -0.37953   0.41648 
 H                     0.59872  -0.86202   1.39833 
 H                     0.35867   0.68881   0.60351 
 C                     1.78599  -0.59801  -0.38576 
 H                     1.69941  -0.08941  -1.35556 
 H                     1.88007  -1.66787  -0.61185 
 C                     3.08034  -0.13145   0.30742 
 H                     3.12047  -0.61431   1.29398 
 C                     4.31064  -0.59099  -0.48791 
 H                     4.31678  -0.14434  -1.48839 
 H                     5.23878  -0.29712   0.0113 
 H                     4.3251   -1.67831  -0.60927 
 C                    -2.50965   0.54486   0.83292 
 H                    -3.43268   0.53048   1.41751 
 H                    -1.74913   1.12829   1.35099 
 C                     3.11823   1.38842   0.52354 
 H                     4.04969   1.68942   1.01217 
 H                     3.05973   1.91767  -0.43412 
 O                    -2.87034   1.29134  -0.37199 
 O                    -1.8763    2.03076  -0.82758 
 H                    -2.2286    2.82553  -1.2348 
 
 NAtoms=     30 NQM=        0 NQMF=       0 NMMI=     30 NMMIF=      0
                NMic=       0 NMicF=      0.
                    Isotopes and Nuclear Properties:
 (Nuclear quadrupole moments (NQMom) in fm**2, nuclear magnetic moments (NMagM)
  in nuclear magnetons)

  Atom         1           2           3           4           5           6           7           8           9          10
 IAtWgt=          12           1           1           1          12           1          12           1           1          12
 AtmWgt=  12.0000000   1.0078250   1.0078250   1.0078250  12.0000000   1.0078250  12.0000000   1.0078250   1.0078250  12.0000000
 NucSpn=           0           1           1           1           0           1           0           1           1           0
 AtZEff=   0.0000000   0.0000000   0.0000000   0.0000000   0.0000000   0.0000000   0.0000000   0.0000000   0.0000000   0.0000000
 NQMom=    0.0000000   0.0000000   0.0000000   0.0000000   0.0000000   0.0000000   0.0000000   0.0000000   0.0000000   0.0000000
 NMagM=    0.0000000   2.7928460   2.7928460   2.7928460   0.0000000   2.7928460   0.0000000   2.7928460   2.7928460   0.0000000

  Atom        11          12          13          14          15          16          17          18          19          20
 IAtWgt=           1           1          12           1           1          12           1          12           1           1
 AtmWgt=   1.0078250   1.0078250  12.0000000   1.0078250   1.0078250  12.0000000   1.0078250  12.0000000   1.0078250   1.0078250
 NucSpn=           1           1           0           1           1           0           1           0           1           1
 AtZEff=   0.0000000   0.0000000   0.0000000   0.0000000   0.0000000   0.0000000   0.0000000   0.0000000   0.0000000   0.0000000
 NQMom=    0.0000000   0.0000000   0.0000000   0.0000000   0.0000000   0.0000000   0.0000000   0.0000000   0.0000000   0.0000000
 NMagM=    2.7928460   2.7928460   0.0000000   2.7928460   2.7928460   0.0000000   2.7928460   0.0000000   2.7928460   2.7928460

  Atom        21          22          23          24          25          26          27          28          29          30
 IAtWgt=           1          12           1           1          12           1           1          16          16           1
 AtmWgt=   1.0078250  12.0000000   1.0078250   1.0078250  12.0000000   1.0078250   1.0078250  15.9949146  15.9949146   1.0078250
 NucSpn=           1           0           1           1           0           1           1           0           0           1
 AtZEff=   0.0000000   0.0000000   0.0000000   0.0000000   0.0000000   0.0000000   0.0000000   0.0000000   0.0000000   0.0000000
 NQMom=    0.0000000   0.0000000   0.0000000   0.0000000   0.0000000   0.0000000   0.0000000   0.0000000   0.0000000   0.0000000
 NMagM=    2.7928460   0.0000000   2.7928460   2.7928460   0.0000000   2.7928460   2.7928460   0.0000000   0.0000000   2.7928460
 Leave Link  101 at Thu Feb  6 23:59:25 2014, MaxMem= 4026531840 cpu:       0.6
 (Enter /usr/caen/gaussian-09revc/g09/l202.exe)
                          Input orientation:                          
 ---------------------------------------------------------------------
 Center     Atomic      Atomic             Coordinates (Angstroms)
 Number     Number       Type             X           Y           Z
 ---------------------------------------------------------------------
      1          6           0       -3.173014   -1.669538   -0.193965
      2          1           0       -2.876169   -2.711612   -0.336378
      3          1           0       -3.399449   -1.247661   -1.176513
      4          1           0       -4.095257   -1.661481    0.394692
      5          6           0       -2.054134   -0.879861    0.502380
      6          1           0       -1.871088   -1.341605    1.483598
      7          6           0       -0.739611   -0.939929   -0.298821
      8          1           0       -0.555894   -1.991835   -0.548576
      9          1           0       -0.874402   -0.422986   -1.255980
     10          6           0        0.496519   -0.379528    0.416475
     11          1           0        0.598724   -0.862021    1.398330
     12          1           0        0.358666    0.688807    0.603514
     13          6           0        1.785988   -0.598005   -0.385763
     14          1           0        1.699407   -0.089406   -1.355555
     15          1           0        1.880069   -1.667866   -0.611848
     16          6           0        3.080336   -0.131454    0.307420
     17          1           0        3.120467   -0.614312    1.293978
     18          6           0        4.310638   -0.590989   -0.487909
     19          1           0        4.316782   -0.144337   -1.488392
     20          1           0        5.238775   -0.297116    0.011302
     21          1           0        4.325105   -1.678305   -0.609266
     22          6           0       -2.509649    0.544864    0.832923
     23          1           0       -3.432676    0.530476    1.417505
     24          1           0       -1.749127    1.128289    1.350988
     25          6           0        3.118227    1.388421    0.523541
     26          1           0        4.049695    1.689416    1.012167
     27          1           0        3.059733    1.917672   -0.434118
     28          8           0       -2.870339    1.291342   -0.371991
     29          8           0       -1.876303    2.030758   -0.827575
     30          1           0       -2.228595    2.825530   -1.234795
 ---------------------------------------------------------------------
                    Distance matrix (angstroms):
                    1          2          3          4          5
     1  C    0.000000
     2  H    1.092848   0.000000
     3  H    1.093002   1.767145   0.000000
     4  H    1.094127   1.767318   1.767507   0.000000
     5  C    1.536352   2.175906   2.182620   2.188312   0.000000
     6  H    2.148667   2.489863   3.069349   2.496991   1.099774
     7  C    2.542592   2.775815   2.817762   3.501708   1.540617
     8  H    2.660628   2.438603   3.005645   3.677768   2.141429
     9  H    2.822301   3.176562   2.657492   3.825244   2.166179
    10  C    3.937288   4.168984   4.297654   4.767419   2.600681
    11  H    4.172948   4.301753   4.771155   4.866198   2.800125
    12  H    4.320941   4.786481   4.587138   5.040326   2.879679
    13  C    5.077073   5.119129   5.285461   6.027365   3.951554
    14  H    5.252294   5.371274   5.231820   6.254032   4.262137
    15  H    5.070333   4.877201   5.326230   6.059512   4.164182
    16  C    6.459216   6.523162   6.740593   7.337420   5.192389
    17  H    6.552509   6.558687   7.000983   7.346560   5.241530
    18  C    7.566685   7.494678   7.768580   8.519625   6.447825
    19  H    7.752343   7.723767   7.800950   8.752721   6.715113
    20  H    8.525484   8.473664   8.771166   9.441008   7.332617
    21  H    7.509617   7.280147   7.757316   8.480018   6.524413
    22  C    2.529452   3.479402   2.835969   2.752119   1.531860
    23  H    2.739402   3.727860   3.145124   2.507954   2.174139
    24  H    3.498881   4.343071   3.841479   3.768507   2.201325
    25  C    7.031759   7.313174   7.233202   7.832806   5.647908
    26  H    8.056355   8.315961   8.300993   8.828931   6.642123
    27  H    7.195338   7.528264   7.231287   8.043081   5.903800
    28  O    2.981630   4.003117   2.715465   3.287460   2.478878
    29  O    3.971790   4.871456   3.631771   4.477759   3.205013
    30  H    4.709660   5.646809   4.238535   5.125712   4.096113
                    6          7          8          9         10
     6  H    0.000000
     7  C    2.149093   0.000000
     8  H    2.506445   1.096647   0.000000
     9  H    3.056555   1.096153   1.750187   0.000000
    10  C    2.769460   1.534182   2.153702   2.162965   0.000000
    11  H    2.517388   2.162760   2.529835   3.067281   1.098765
    12  H    3.141484   2.161759   3.057707   2.492841   1.093310
    13  C    4.173926   2.550122   2.730143   2.804565   1.534291
    14  H    4.730457   2.790857   3.058894   2.597245   2.161296
    15  H    4.309120   2.736896   2.458226   3.090589   2.152086
    16  C    5.231105   3.951349   4.173238   4.262530   2.597988
    17  H    5.047824   4.188465   4.336843   4.743192   2.776732
    18  C    6.531769   5.065820   5.064502   5.244311   3.925574
    19  H    6.968207   5.255012   5.295231   5.203850   4.275306
    20  H    7.335446   6.020837   6.063310   6.244420   4.760247
    21  H    6.548760   5.127663   4.891435   5.387851   4.170976
    22  C    2.095210   2.572642   3.487197   2.823877   3.172535
    23  H    2.438773   3.515745   4.301558   3.821175   4.155568
    24  H    2.476456   2.831699   3.842827   3.157195   2.861774
    25  C    5.767843   4.580437   5.106342   4.731699   3.163931
    26  H    6.668209   5.618683   6.099096   5.818373   4.154568
    27  H    6.213978   4.755965   5.326359   4.650974   3.545519
    28  O    3.372554   3.086086   4.020832   2.775630   3.840471
    29  O    4.088323   3.224381   4.242945   2.684809   3.603807
    30  H    4.988235   4.155936   5.145467   3.519538   4.519440
                   11         12         13         14         15
    11  H    0.000000
    12  H    1.759099   0.000000
    13  C    2.159233   2.161435   0.000000
    14  H    3.064689   2.498230   1.098483   0.000000
    15  H    2.516356   3.057070   1.097528   1.754216   0.000000
    16  C    2.807528   2.857969   1.540620   2.161994   2.155518
    17  H    2.536028   3.130879   2.145374   3.052042   2.506140
    18  C    4.172489   4.295016   2.526725   2.796949   2.661332
    19  H    4.761532   4.553777   2.797592   2.621319   3.004503
    20  H    4.875760   5.013803   3.488543   3.799811   3.680785
    21  H    4.310763   4.775635   2.768414   3.158455   2.445060
    22  C    3.458467   2.881073   4.609104   4.786218   5.123784
    23  H    4.265161   3.880969   5.635574   5.866208   6.097232
    24  H    3.078308   2.279178   4.300399   4.549785   4.984202
    25  C    3.489648   2.847987   2.558824   2.779932   3.487554
    26  H    4.309078   3.846025   3.508685   3.780763   4.314631
    27  H    4.140184   3.143653   2.820176   2.593819   3.778793
    28  O    4.450327   3.426533   5.025058   4.874058   5.601859
    29  O    4.410055   2.973876   4.529677   4.190413   5.276049
    30  H    5.340891   3.826080   5.343999   4.892917   6.120441
                   16         17         18         19         20
    16  C    0.000000
    17  H    1.099117   0.000000
    18  C    1.535371   2.142935   0.000000
    19  H    2.180345   3.064903   1.095674   0.000000
    20  H    2.184946   2.496618   1.094080   1.767058   0.000000
    21  H    2.186895   2.491098   1.094163   1.768047   1.768497
    22  C    5.655218   5.766669   7.039252   7.243180   7.837223
    23  H    6.640012   6.653532   8.052776   8.303837   8.823626
    24  H    5.098990   5.172316   6.561876   6.817397   7.256536
    25  C    1.535631   2.145814   2.522487   2.798885   2.756837
    26  H    2.179884   2.500009   2.742000   3.112359   2.522291
    27  H    2.179271   3.066096   2.803754   2.635061   3.138775
    28  O    6.156012   6.503593   7.424489   7.413652   8.272112
    29  O    5.525545   6.038634   6.728089   6.597123   7.533064
    30  H    6.269524   6.843952   7.415660   7.192106   8.189340
                   21         22         23         24         25
    21  H    0.000000
    22  C    7.330501   0.000000
    23  H    8.316831   1.092667   0.000000
    24  H    6.972507   1.089573   1.787776   0.000000
    25  C    3.484912   5.699149   6.667051   4.944034   0.000000
    26  H    3.747858   6.660865   7.582435   5.835752   1.094069
    27  H    3.816136   5.874352   6.892329   5.189881   1.095737
    28  O    7.787780   1.462581   2.024212   2.062125   6.055933
    29  O    7.229265   2.316519   3.116653   2.361517   5.213775
    30  H    7.976641   3.091260   3.708339   3.129983   5.809091
                   26         27         28         29         30
    26  H    0.000000
    27  H    1.767446   0.000000
    28  O    7.068326   5.963380   0.000000
    29  O    6.214388   4.952984   1.320000   0.000000
    30  H    6.764357   5.425099   1.873499   0.960000   0.000000
 Stoichiometry    C9H19O2(2)
 Framework group  C1[X(C9H19O2)]
 Deg. of freedom    84
 Full point group                 C1      NOp   1
 Largest Abelian subgroup         C1      NOp   1
 Largest concise Abelian subgroup C1      NOp   1
                         Standard orientation:                         
 ---------------------------------------------------------------------
 Center     Atomic      Atomic             Coordinates (Angstroms)
 Number     Number       Type             X           Y           Z
 ---------------------------------------------------------------------
      1          6           0       -3.087533   -1.732031   -0.268547
      2          1           0       -2.769633   -2.757740   -0.471468
      3          1           0       -3.322664   -1.257983   -1.224918
      4          1           0       -4.009639   -1.777170    0.318647
      5          6           0       -1.984775   -0.962000    0.473987
      6          1           0       -1.792215   -1.476640    1.426651
      7          6           0       -0.669453   -0.948369   -0.328039
      8          1           0       -0.464479   -1.979894   -0.638808
      9          1           0       -0.814884   -0.379068   -1.253403
     10          6           0        0.555186   -0.405907    0.420098
     11          1           0        0.667343   -0.942932    1.372101
     12          1           0        0.395721    0.646619    0.669266
     13          6           0        1.848672   -0.550827   -0.392269
     14          1           0        1.751609    0.011863   -1.330685
     15          1           0        1.964398   -1.603476   -0.680550
     16          6           0        3.133418   -0.099560    0.328353
     17          1           0        3.183521   -0.638482    1.284968
     18          6           0        4.372641   -0.486677   -0.491298
     19          1           0        4.369535    0.017862   -1.463889
     20          1           0        5.294718   -0.203812    0.025202
     21          1           0        4.409143   -1.564498   -0.676133
     22          6           0       -2.469040    0.431385    0.886974
     23          1           0       -3.391476    0.364067    1.468783
     24          1           0       -1.720415    0.998744    1.439091
     25          6           0        3.140505    1.405496    0.633184
     26          1           0        4.065765    1.696157    1.139538
     27          1           0        3.071106    1.988656   -0.291882
     28          8           0       -2.845026    1.239718   -0.272499
     29          8           0       -1.866283    2.024551   -0.682985
     30          1           0       -2.234703    2.834515   -1.043296
 ---------------------------------------------------------------------
 Rotational constants (GHZ):      1.7970121      0.4346763      0.3802186
 Leave Link  202 at Thu Feb  6 23:59:25 2014, MaxMem= 4026531840 cpu:       0.6
 (Enter /usr/caen/gaussian-09revc/g09/l301.exe)
 Standard basis: 6-311++G(d,p) (5D, 7F)
 Ernie: Thresh=  0.10000D-02 Tol=  0.10000D-05 Strict=F.
 There are   375 symmetry adapted basis functions of A   symmetry.
 Integral buffers will be    131072 words long.
 Raffenetti 2 integral format.
 Two-electron integral symmetry is turned on.
   375 basis functions,   567 primitive gaussians,   386 cartesian basis functions
    45 alpha electrons       44 beta electrons
       nuclear repulsion energy       649.3887156339 Hartrees.
 IExCor=  402 DFT=T Ex+Corr=B3LYP ExCW=0 ScaHFX=  0.200000
 ScaDFX=  0.800000  0.720000  1.000000  0.810000 ScalE2=  1.000000  1.000000
 IRadAn=      0 IRanWt=     -1 IRanGd=            0 ICorTp=0
 NAtoms=   30 NActive=   30 NUniq=   30 SFac= 1.00D+00 NAtFMM=   60 NAOKFM=F Big=F
 Leave Link  301 at Thu Feb  6 23:59:25 2014, MaxMem= 4026531840 cpu:       0.8
 (Enter /usr/caen/gaussian-09revc/g09/l302.exe)
 NPDir=0 NMtPBC=     1 NCelOv=     1 NCel=       1 NClECP=     1 NCelD=      1
         NCelK=      1 NCelE2=     1 NClLst=     1 CellRange=     0.0.
 One-electron integrals computed using PRISM.
 NBasis=   375 RedAO= T  NBF=   375
 NBsUse=   375 1.00D-06 NBFU=   375
 Precomputing XC quadrature grid using
 IXCGrd= 2 IRadAn=           0 IRanWt=          -1 IRanGd=           0 AccXCQ= 0.00D+00.
 NRdTot=    1961 NPtTot=      250122 NUsed=      264252 NTot=      264284
 NSgBfM=   386   386   386   386   386 NAtAll=    30    30.
 Leave Link  302 at Thu Feb  6 23:59:27 2014, MaxMem= 4026531840 cpu:      11.3
 (Enter /usr/caen/gaussian-09revc/g09/l303.exe)
 DipDrv:  MaxL=1.
 Leave Link  303 at Thu Feb  6 23:59:28 2014, MaxMem= 4026531840 cpu:       2.5
 (Enter /usr/caen/gaussian-09revc/g09/l401.exe)
 Harris functional with IExCor=  402 diagonalized for initial guess.
 ExpMin= 3.60D-02 ExpMax= 8.59D+03 ExpMxC= 1.30D+03 IAcc=3 IRadAn=         5 AccDes= 0.00D+00
 HarFok:  IExCor=  402 AccDes= 0.00D+00 IRadAn=         5 IDoV= 1
 ScaDFX=  1.000000  1.000000  1.000000  1.000000
 FoFCou: FMM=F IPFlag=           0 FMFlag=      100000 FMFlg1=           0
         NFxFlg=           0 DoJE=T BraDBF=F KetDBF=T FulRan=T
         Omega=  0.000000  0.000000  1.000000  0.000000  0.000000 ICntrl=     500 IOpCl=  0
         NMat0=    1 NMatS0=    1 NMatT0=    0 NMatD0=    1 NMtDS0=    0 NMtDT0=    0
         I1Cent=           4 NGrid=           0.
 Petite list used in FoFCou.
 Harris En= -504.859651311450    
 Mixing orbitals, IMix= 1 IMixAn=  0 NRI=1 NE=   45 Coef=  7.07106781D-01  7.07106781D-01
 Mixing orbitals, IMix= 1 IMixAn=  0 NRI=1 NE=   44 Coef= -7.07106781D-01  7.07106781D-01
 Initial guess orbital symmetries:
 Alpha Orbitals:
       Occupied  (A) (A) (A) (A) (A) (A) (A) (A) (A) (A) (A) (A)
                 (A) (A) (A) (A) (A) (A) (A) (A) (A) (A) (A) (A)
                 (A) (A) (A) (A) (A) (A) (A) (A) (A) (A) (A) (A)
                 (A) (A) (A) (A) (A) (A) (A) (A) (A)
       Virtual   (A) (A) (A) (A) (A) (A) (A) (A) (A) (A) (A) (A)
                 (A) (A) (A) (A) (A) (A) (A) (A) (A) (A) (A) (A)
                 (A) (A) (A) (A) (A) (A) (A) (A) (A) (A) (A) (A)
                 (A) (A) (A) (A) (A) (A) (A) (A) (A) (A) (A) (A)
                 (A) (A) (A) (A) (A) (A) (A) (A) (A) (A) (A) (A)
                 (A) (A) (A) (A) (A) (A) (A) (A) (A) (A) (A) (A)
                 (A) (A) (A) (A) (A) (A) (A) (A) (A) (A) (A) (A)
                 (A) (A) (A) (A) (A) (A) (A) (A) (A) (A) (A) (A)
                 (A) (A) (A) (A) (A) (A) (A) (A) (A) (A) (A) (A)
                 (A) (A) (A) (A) (A) (A) (A) (A) (A) (A) (A) (A)
                 (A) (A) (A) (A) (A) (A) (A) (A) (A) (A) (A) (A)
                 (A) (A) (A) (A) (A) (A) (A) (A) (A) (A) (A) (A)
                 (A) (A) (A) (A) (A) (A) (A) (A) (A) (A) (A) (A)
                 (A) (A) (A) (A) (A) (A) (A) (A) (A) (A) (A) (A)
                 (A) (A) (A) (A) (A) (A) (A) (A) (A) (A) (A) (A)
                 (A) (A) (A) (A) (A) (A) (A) (A) (A) (A) (A) (A)
                 (A) (A) (A) (A) (A) (A) (A) (A) (A) (A) (A) (A)
                 (A) (A) (A) (A) (A) (A) (A) (A) (A) (A) (A) (A)
                 (A) (A) (A) (A) (A) (A) (A) (A) (A) (A) (A) (A)
                 (A) (A) (A) (A) (A) (A) (A) (A) (A) (A) (A) (A)
                 (A) (A) (A) (A) (A) (A) (A) (A) (A) (A) (A) (A)
                 (A) (A) (A) (A) (A) (A) (A) (A) (A) (A) (A) (A)
                 (A) (A) (A) (A) (A) (A) (A) (A) (A) (A) (A) (A)
                 (A) (A) (A) (A) (A) (A) (A) (A) (A) (A) (A) (A)
                 (A) (A) (A) (A) (A) (A) (A) (A) (A) (A) (A) (A)
                 (A) (A) (A) (A) (A) (A) (A) (A) (A) (A) (A) (A)
                 (A) (A) (A) (A) (A) (A) (A) (A) (A) (A) (A) (A)
                 (A) (A) (A) (A) (A) (A)
 Beta  Orbitals:
       Occupied  (A) (A) (A) (A) (A) (A) (A) (A) (A) (A) (A) (A)
                 (A) (A) (A) (A) (A) (A) (A) (A) (A) (A) (A) (A)
                 (A) (A) (A) (A) (A) (A) (A) (A) (A) (A) (A) (A)
                 (A) (A) (A) (A) (A) (A) (A) (A)
       Virtual   (A) (A) (A) (A) (A) (A) (A) (A) (A) (A) (A) (A)
                 (A) (A) (A) (A) (A) (A) (A) (A) (A) (A) (A) (A)
                 (A) (A) (A) (A) (A) (A) (A) (A) (A) (A) (A) (A)
                 (A) (A) (A) (A) (A) (A) (A) (A) (A) (A) (A) (A)
                 (A) (A) (A) (A) (A) (A) (A) (A) (A) (A) (A) (A)
                 (A) (A) (A) (A) (A) (A) (A) (A) (A) (A) (A) (A)
                 (A) (A) (A) (A) (A) (A) (A) (A) (A) (A) (A) (A)
                 (A) (A) (A) (A) (A) (A) (A) (A) (A) (A) (A) (A)
                 (A) (A) (A) (A) (A) (A) (A) (A) (A) (A) (A) (A)
                 (A) (A) (A) (A) (A) (A) (A) (A) (A) (A) (A) (A)
                 (A) (A) (A) (A) (A) (A) (A) (A) (A) (A) (A) (A)
                 (A) (A) (A) (A) (A) (A) (A) (A) (A) (A) (A) (A)
                 (A) (A) (A) (A) (A) (A) (A) (A) (A) (A) (A) (A)
                 (A) (A) (A) (A) (A) (A) (A) (A) (A) (A) (A) (A)
                 (A) (A) (A) (A) (A) (A) (A) (A) (A) (A) (A) (A)
                 (A) (A) (A) (A) (A) (A) (A) (A) (A) (A) (A) (A)
                 (A) (A) (A) (A) (A) (A) (A) (A) (A) (A) (A) (A)
                 (A) (A) (A) (A) (A) (A) (A) (A) (A) (A) (A) (A)
                 (A) (A) (A) (A) (A) (A) (A) (A) (A) (A) (A) (A)
                 (A) (A) (A) (A) (A) (A) (A) (A) (A) (A) (A) (A)
                 (A) (A) (A) (A) (A) (A) (A) (A) (A) (A) (A) (A)
                 (A) (A) (A) (A) (A) (A) (A) (A) (A) (A) (A) (A)
                 (A) (A) (A) (A) (A) (A) (A) (A) (A) (A) (A) (A)
                 (A) (A) (A) (A) (A) (A) (A) (A) (A) (A) (A) (A)
                 (A) (A) (A) (A) (A) (A) (A) (A) (A) (A) (A) (A)
                 (A) (A) (A) (A) (A) (A) (A) (A) (A) (A) (A) (A)
                 (A) (A) (A) (A) (A) (A) (A) (A) (A) (A) (A) (A)
                 (A) (A) (A) (A) (A) (A) (A)
 The electronic state of the initial guess is 2-A.
 Initial guess <Sx>= 0.0000 <Sy>= 0.0000 <Sz>= 0.5000 <S**2>= 1.0000 S= 0.6180
 Leave Link  401 at Thu Feb  6 23:59:36 2014, MaxMem= 4026531840 cpu:      47.7
 (Enter /usr/caen/gaussian-09revc/g09/l502.exe)
 UHF open shell SCF:
 Requested convergence on RMS density matrix=1.00D-08 within 128 cycles.
 Requested convergence on MAX density matrix=1.00D-06.
 Requested convergence on             energy=1.00D-06.
 No special actions if energy rises.
 Using DIIS extrapolation, IDIIS=  1040.
 Integral symmetry usage will be decided dynamically.
       263969 words used for storage of precomputed grid.
 IEnd=      735103 IEndB=      735103 NGot=  4026531840 MDV=  4025962760
 LenX=  4025962760 LenY=  4025813323
 Fock matrices will be formed incrementally for  20 cycles.

 Cycle   1  Pass 1  IDiag  1:
 FoFCou: FMM=F IPFlag=           0 FMFlag=      100000 FMFlg1=           0
         NFxFlg=           0 DoJE=F BraDBF=F KetDBF=F FulRan=T
         Omega=  0.000000  0.000000  1.000000  0.000000  0.000000 ICntrl=       0 IOpCl=  1
         NMat0=    1 NMatS0=    1 NMatT0=    0 NMatD0=    1 NMtDS0=    0 NMtDT0=    0
         I1Cent=           0 NGrid=           0.
 Symmetry not used in FoFCou.
 E= -504.302830251611    
 DIIS: error= 2.29D-02 at cycle   1 NSaved=   1.
 NSaved= 1 IEnMin= 1 EnMin= -504.302830251611     IErMin= 1 ErrMin= 2.29D-02
 ErrMax= 2.29D-02 EMaxC= 1.00D-01 BMatC= 1.48D+00 BMatP= 1.48D+00
 IDIUse=3 WtCom= 7.71D-01 WtEn= 2.29D-01
 Coeff-Com:  0.100D+01
 Coeff-En:   0.100D+01
 Coeff:      0.100D+01
 Gap=     0.031 Goal=   None    Shift=    0.000
 Gap=     0.014 Goal=   None    Shift=    0.000
 GapD=    0.014 DampG=0.250 DampE=0.500 DampFc=0.2500 IDamp=-1.
 Damping current iteration by 2.50D-01
 RMSDP=2.65D-02 MaxDP=4.03D+00              OVMax= 9.49D-01

 Cycle   2  Pass 1  IDiag  1:
 RMSU=  4.53D-03    CP:  8.76D-01
 E= -504.437476445023     Delta-E=       -0.134646193412 Rises=F Damp=T
 DIIS: error= 1.05D-02 at cycle   2 NSaved=   2.
 NSaved= 2 IEnMin= 2 EnMin= -504.437476445023     IErMin= 2 ErrMin= 1.05D-02
 ErrMax= 1.05D-02 EMaxC= 1.00D-01 BMatC= 3.56D-01 BMatP= 1.48D+00
 IDIUse=3 WtCom= 8.95D-01 WtEn= 1.05D-01
 Coeff-Com: -0.595D+00 0.160D+01
 Coeff-En:   0.000D+00 0.100D+01
 Coeff:     -0.533D+00 0.153D+01
 Gap=    -0.205 Goal=   None    Shift=    0.000
 Gap=     0.347 Goal=   None    Shift=    0.000
 RMSDP=1.87D-02 MaxDP=2.25D+00 DE=-1.35D-01 OVMax= 9.90D-01

 Cycle   3  Pass 1  IDiag  1:
 RMSU=  1.06D-02    CP:  4.89D-01  7.03D-01
 E= -504.278071907302     Delta-E=        0.159404537721 Rises=F Damp=F
 DIIS: error= 2.52D-02 at cycle   3 NSaved=   3.
 NSaved= 3 IEnMin= 2 EnMin= -504.437476445023     IErMin= 2 ErrMin= 1.05D-02
 ErrMax= 2.52D-02 EMaxC= 1.00D-01 BMatC= 1.10D+00 BMatP= 3.56D-01
 IDIUse=2 WtCom= 0.00D+00 WtEn= 1.00D+00
 Coeff-En:   0.000D+00 0.665D+00 0.335D+00
 Coeff:      0.000D+00 0.665D+00 0.335D+00
 Gap=     0.414 Goal=   None    Shift=    0.000
 Gap=    -0.268 Goal=   None    Shift=    0.000
 RMSDP=1.50D-02 MaxDP=1.24D+00 DE= 1.59D-01 OVMax= 9.99D-01

 Cycle   4  Pass 1  IDiag  1:
 RMSU=  1.26D-02    CP:  4.14D-01  1.54D+00  6.01D-01
 E= -504.041369565410     Delta-E=        0.236702341891 Rises=F Damp=F
 DIIS: error= 3.10D-02 at cycle   4 NSaved=   4.
 NSaved= 4 IEnMin= 2 EnMin= -504.437476445023     IErMin= 2 ErrMin= 1.05D-02
 ErrMax= 3.10D-02 EMaxC= 1.00D-01 BMatC= 1.65D+00 BMatP= 3.56D-01
 IDIUse=2 WtCom= 0.00D+00 WtEn= 1.00D+00
 Coeff-En:   0.000D+00 0.000D+00 0.564D+00 0.436D+00
 Coeff:      0.000D+00 0.000D+00 0.564D+00 0.436D+00
 Gap=    -0.048 Goal=   None    Shift=    0.000
 Gap=     0.324 Goal=   None    Shift=    0.000
 RMSDP=1.88D-02 MaxDP=2.40D+00 DE= 2.37D-01 OVMax= 1.00D+00

 Cycle   5  Pass 1  IDiag  1:
 RMSU=  1.06D-02    CP:  5.20D-01  8.28D-01  1.03D+00  4.82D-02
 E= -504.777882442023     Delta-E=       -0.736512876613 Rises=F Damp=F
 DIIS: error= 5.95D-03 at cycle   5 NSaved=   5.
 NSaved= 5 IEnMin= 5 EnMin= -504.777882442023     IErMin= 5 ErrMin= 5.95D-03
 ErrMax= 5.95D-03 EMaxC= 1.00D-01 BMatC= 1.39D-01 BMatP= 3.56D-01
 IDIUse=3 WtCom= 9.41D-01 WtEn= 5.95D-02
 Coeff-Com: -0.282D+00 0.409D+00 0.252D+00 0.138D-01 0.607D+00
 Coeff-En:   0.000D+00 0.000D+00 0.290D-01 0.000D+00 0.971D+00
 Coeff:     -0.265D+00 0.385D+00 0.239D+00 0.130D-01 0.628D+00
 Gap=     0.158 Goal=   None    Shift=    0.000
 Gap=     0.143 Goal=   None    Shift=    0.000
 RMSDP=1.00D-02 MaxDP=1.68D+00 DE=-7.37D-01 OVMax= 6.09D-02

 Cycle   6  Pass 1  IDiag  1:
 RMSU=  2.47D-03    CP:  4.38D-01  9.15D-01  8.19D-01  1.32D-01  2.79D-01
 E= -504.811873776911     Delta-E=       -0.033991334888 Rises=F Damp=F
 DIIS: error= 2.96D-03 at cycle   6 NSaved=   6.
 NSaved= 6 IEnMin= 6 EnMin= -504.811873776911     IErMin= 6 ErrMin= 2.96D-03
 ErrMax= 2.96D-03 EMaxC= 1.00D-01 BMatC= 1.62D-02 BMatP= 1.39D-01
 IDIUse=3 WtCom= 9.70D-01 WtEn= 2.96D-02
 Coeff-Com: -0.669D-01 0.115D+00 0.116D+00-0.987D-02 0.131D+00 0.714D+00
 Coeff-En:   0.000D+00 0.000D+00 0.000D+00 0.000D+00 0.000D+00 0.100D+01
 Coeff:     -0.649D-01 0.112D+00 0.113D+00-0.958D-02 0.127D+00 0.723D+00
 Gap=     0.189 Goal=   None    Shift=    0.000
 Gap=     0.155 Goal=   None    Shift=    0.000
 RMSDP=1.85D-03 MaxDP=2.18D-01 DE=-3.40D-02 OVMax= 2.49D-02

 Cycle   7  Pass 1  IDiag  1:
 RMSU=  6.07D-04    CP:  4.36D-01  9.29D-01  7.90D-01  1.56D-01  1.51D-01
                    CP:  1.17D+00
 E= -504.815029478469     Delta-E=       -0.003155701558 Rises=F Damp=F
 DIIS: error= 2.00D-03 at cycle   7 NSaved=   7.
 NSaved= 7 IEnMin= 7 EnMin= -504.815029478469     IErMin= 7 ErrMin= 2.00D-03
 ErrMax= 2.00D-03 EMaxC= 1.00D-01 BMatC= 7.15D-03 BMatP= 1.62D-02
 IDIUse=3 WtCom= 9.80D-01 WtEn= 2.00D-02
 Coeff-Com:  0.355D-01-0.241D-01 0.391D-01-0.598D-02-0.119D+00 0.333D+00
 Coeff-Com:  0.741D+00
 Coeff-En:   0.000D+00 0.000D+00 0.000D+00 0.000D+00 0.000D+00 0.000D+00
 Coeff-En:   0.100D+01
 Coeff:      0.348D-01-0.236D-01 0.383D-01-0.586D-02-0.116D+00 0.326D+00
 Coeff:      0.746D+00
 Gap=     0.212 Goal=   None    Shift=    0.000
 Gap=     0.155 Goal=   None    Shift=    0.000
 RMSDP=9.24D-04 MaxDP=8.67D-02 DE=-3.16D-03 OVMax= 1.80D-02

 Cycle   8  Pass 1  IDiag  1:
 RMSU=  3.67D-04    CP:  4.32D-01  9.01D-01  7.81D-01  1.50D-01  8.75D-02
                    CP:  1.16D+00  1.04D+00
 E= -504.816870310776     Delta-E=       -0.001840832307 Rises=F Damp=F
 DIIS: error= 8.95D-04 at cycle   8 NSaved=   8.
 NSaved= 8 IEnMin= 8 EnMin= -504.816870310776     IErMin= 8 ErrMin= 8.95D-04
 ErrMax= 8.95D-04 EMaxC= 1.00D-01 BMatC= 1.64D-03 BMatP= 7.15D-03
 IDIUse=3 WtCom= 9.91D-01 WtEn= 8.95D-03
 Coeff-Com:  0.125D-02 0.625D-02 0.123D-01-0.437D-02-0.537D-01-0.177D+00
 Coeff-Com:  0.286D+00 0.930D+00
 Coeff-En:   0.000D+00 0.000D+00 0.000D+00 0.000D+00 0.000D+00 0.000D+00
 Coeff-En:   0.000D+00 0.100D+01
 Coeff:      0.124D-02 0.619D-02 0.122D-01-0.433D-02-0.532D-01-0.176D+00
 Coeff:      0.283D+00 0.930D+00
 Gap=     0.221 Goal=   None    Shift=    0.000
 Gap=     0.153 Goal=   None    Shift=    0.000
 RMSDP=3.39D-04 MaxDP=3.46D-02 DE=-1.84D-03 OVMax= 9.65D-03

 Cycle   9  Pass 1  IDiag  1:
 RMSU=  1.12D-04    CP:  4.34D-01  8.96D-01  7.83D-01  1.48D-01  6.78D-02
                    CP:  1.16D+00  1.22D+00  1.21D+00
 E= -504.817273471381     Delta-E=       -0.000403160605 Rises=F Damp=F
 DIIS: error= 3.38D-04 at cycle   9 NSaved=   9.
 NSaved= 9 IEnMin= 9 EnMin= -504.817273471381     IErMin= 9 ErrMin= 3.38D-04
 ErrMax= 3.38D-04 EMaxC= 1.00D-01 BMatC= 3.38D-04 BMatP= 1.64D-03
 IDIUse=3 WtCom= 9.97D-01 WtEn= 3.38D-03
 Coeff-Com: -0.243D-02 0.517D-02 0.396D-02-0.390D-02-0.243D-01-0.161D+00
 Coeff-Com:  0.834D-01 0.573D+00 0.526D+00
 Coeff-En:   0.000D+00 0.000D+00 0.000D+00 0.000D+00 0.000D+00 0.000D+00
 Coeff-En:   0.000D+00 0.000D+00 0.100D+01
 Coeff:     -0.242D-02 0.515D-02 0.395D-02-0.388D-02-0.242D-01-0.160D+00
 Coeff:      0.831D-01 0.571D+00 0.527D+00
 Gap=     0.223 Goal=   None    Shift=    0.000
 Gap=     0.153 Goal=   None    Shift=    0.000
 RMSDP=1.00D-04 MaxDP=8.69D-03 DE=-4.03D-04 OVMax= 2.47D-03

 Cycle  10  Pass 1  IDiag  1:
 RMSU=  4.28D-05    CP:  4.33D-01  8.95D-01  7.82D-01  1.49D-01  6.23D-02
                    CP:  1.16D+00  1.27D+00  1.27D+00  9.16D-01
 E= -504.817344116858     Delta-E=       -0.000070645477 Rises=F Damp=F
 DIIS: error= 1.67D-04 at cycle  10 NSaved=  10.
 NSaved=10 IEnMin=10 EnMin= -504.817344116858     IErMin=10 ErrMin= 1.67D-04
 ErrMax= 1.67D-04 EMaxC= 1.00D-01 BMatC= 3.19D-05 BMatP= 3.38D-04
 IDIUse=3 WtCom= 9.98D-01 WtEn= 1.67D-03
 Coeff-Com: -0.131D-02 0.148D-02 0.192D-02-0.145D-02-0.201D-03-0.258D-01
 Coeff-Com: -0.162D-01 0.311D-01 0.164D+00 0.846D+00
 Coeff-En:   0.000D+00 0.000D+00 0.000D+00 0.000D+00 0.000D+00 0.000D+00
 Coeff-En:   0.000D+00 0.000D+00 0.000D+00 0.100D+01
 Coeff:     -0.131D-02 0.147D-02 0.191D-02-0.145D-02-0.200D-03-0.258D-01
 Coeff:     -0.162D-01 0.311D-01 0.164D+00 0.846D+00
 Gap=     0.221 Goal=   None    Shift=    0.000
 Gap=     0.152 Goal=   None    Shift=    0.000
 RMSDP=4.41D-05 MaxDP=6.04D-03 DE=-7.06D-05 OVMax= 7.74D-04

 Cycle  11  Pass 1  IDiag  1:
 RMSU=  1.78D-05    CP:  4.34D-01  8.94D-01  7.83D-01  1.48D-01  6.12D-02
                    CP:  1.16D+00  1.27D+00  1.30D+00  1.00D+00  1.08D+00
 E= -504.817352574455     Delta-E=       -0.000008457597 Rises=F Damp=F
 DIIS: error= 5.59D-05 at cycle  11 NSaved=  11.
 NSaved=11 IEnMin=11 EnMin= -504.817352574455     IErMin=11 ErrMin= 5.59D-05
 ErrMax= 5.59D-05 EMaxC= 1.00D-01 BMatC= 5.75D-06 BMatP= 3.19D-05
 IDIUse=1 WtCom= 1.00D+00 WtEn= 0.00D+00
 Coeff-Com:  0.902D-04-0.475D-03 0.510D-03-0.618D-03 0.197D-02 0.769D-02
 Coeff-Com: -0.165D-01-0.601D-01-0.190D-02 0.328D+00 0.741D+00
 Coeff:      0.902D-04-0.475D-03 0.510D-03-0.618D-03 0.197D-02 0.769D-02
 Coeff:     -0.165D-01-0.601D-01-0.190D-02 0.328D+00 0.741D+00
 Gap=     0.220 Goal=   None    Shift=    0.000
 Gap=     0.152 Goal=   None    Shift=    0.000
 RMSDP=1.56D-05 MaxDP=1.79D-03 DE=-8.46D-06 OVMax= 3.39D-04

 Cycle  12  Pass 1  IDiag  1:
 RMSU=  5.88D-06    CP:  4.34D-01  8.93D-01  7.83D-01  1.48D-01  6.11D-02
                    CP:  1.16D+00  1.27D+00  1.32D+00  1.05D+00  1.15D+00
                    CP:  9.89D-01
 E= -504.817353968808     Delta-E=       -0.000001394353 Rises=F Damp=F
 DIIS: error= 2.28D-05 at cycle  12 NSaved=  12.
 NSaved=12 IEnMin=12 EnMin= -504.817353968808     IErMin=12 ErrMin= 2.28D-05
 ErrMax= 2.28D-05 EMaxC= 1.00D-01 BMatC= 7.34D-07 BMatP= 5.75D-06
 IDIUse=1 WtCom= 1.00D+00 WtEn= 0.00D+00
 Coeff-Com:  0.304D-04-0.405D-05 0.157D-03-0.212D-03 0.113D-02 0.734D-02
 Coeff-Com: -0.498D-02-0.327D-01-0.271D-01-0.721D-02 0.339D+00 0.725D+00
 Coeff:      0.304D-04-0.405D-05 0.157D-03-0.212D-03 0.113D-02 0.734D-02
 Coeff:     -0.498D-02-0.327D-01-0.271D-01-0.721D-02 0.339D+00 0.725D+00
 Gap=     0.220 Goal=   None    Shift=    0.000
 Gap=     0.152 Goal=   None    Shift=    0.000
 RMSDP=7.59D-06 MaxDP=1.10D-03 DE=-1.39D-06 OVMax= 9.05D-05

 Cycle  13  Pass 1  IDiag  1:
 RMSU=  2.42D-06    CP:  4.34D-01  8.93D-01  7.84D-01  1.48D-01  6.11D-02
                    CP:  1.16D+00  1.27D+00  1.32D+00  1.06D+00  1.14D+00
                    CP:  1.04D+00  1.06D+00
 E= -504.817354183564     Delta-E=       -0.000000214755 Rises=F Damp=F
 DIIS: error= 5.25D-06 at cycle  13 NSaved=  13.
 NSaved=13 IEnMin=13 EnMin= -504.817354183564     IErMin=13 ErrMin= 5.25D-06
 ErrMax= 5.25D-06 EMaxC= 1.00D-01 BMatC= 7.41D-08 BMatP= 7.34D-07
 IDIUse=1 WtCom= 1.00D+00 WtEn= 0.00D+00
 Coeff-Com:  0.371D-04-0.236D-04 0.186D-04-0.863D-04 0.134D-03 0.162D-02
 Coeff-Com:  0.989D-05-0.465D-02-0.834D-02-0.387D-01 0.256D-01 0.244D+00
 Coeff-Com:  0.780D+00
 Coeff:      0.371D-04-0.236D-04 0.186D-04-0.863D-04 0.134D-03 0.162D-02
 Coeff:      0.989D-05-0.465D-02-0.834D-02-0.387D-01 0.256D-01 0.244D+00
 Coeff:      0.780D+00
 Gap=     0.220 Goal=   None    Shift=    0.000
 Gap=     0.151 Goal=   None    Shift=    0.000
 RMSDP=2.53D-06 MaxDP=4.40D-04 DE=-2.15D-07 OVMax= 2.88D-05

 Cycle  14  Pass 1  IDiag  1:
 RMSU=  8.92D-07    CP:  4.34D-01  8.93D-01  7.84D-01  1.48D-01  6.11D-02
                    CP:  1.16D+00  1.27D+00  1.32D+00  1.06D+00  1.13D+00
                    CP:  1.08D+00  1.11D+00  1.11D+00
 E= -504.817354202318     Delta-E=       -0.000000018754 Rises=F Damp=F
 DIIS: error= 2.78D-06 at cycle  14 NSaved=  14.
 NSaved=14 IEnMin=14 EnMin= -504.817354202318     IErMin=14 ErrMin= 2.78D-06
 ErrMax= 2.78D-06 EMaxC= 1.00D-01 BMatC= 6.73D-09 BMatP= 7.41D-08
 IDIUse=1 WtCom= 1.00D+00 WtEn= 0.00D+00
 Coeff-Com: -0.940D-05 0.195D-04 0.185D-04-0.191D-04-0.727D-04-0.378D-03
 Coeff-Com:  0.484D-03 0.236D-02 0.124D-02-0.740D-02-0.338D-01-0.285D-01
 Coeff-Com:  0.224D+00 0.842D+00
 Coeff:     -0.940D-05 0.195D-04 0.185D-04-0.191D-04-0.727D-04-0.378D-03
 Coeff:      0.484D-03 0.236D-02 0.124D-02-0.740D-02-0.338D-01-0.285D-01
 Coeff:      0.224D+00 0.842D+00
 Gap=     0.220 Goal=   None    Shift=    0.000
 Gap=     0.151 Goal=   None    Shift=    0.000
 RMSDP=7.28D-07 MaxDP=7.50D-05 DE=-1.88D-08 OVMax= 1.38D-05

 Cycle  15  Pass 1  IDiag  1:
 RMSU=  2.39D-07    CP:  4.34D-01  8.93D-01  7.84D-01  1.48D-01  6.11D-02
                    CP:  1.16D+00  1.27D+00  1.32D+00  1.06D+00  1.13D+00
                    CP:  1.07D+00  1.13D+00  1.17D+00  9.85D-01
 E= -504.817354204434     Delta-E=       -0.000000002116 Rises=F Damp=F
 DIIS: error= 7.85D-07 at cycle  15 NSaved=  15.
 NSaved=15 IEnMin=15 EnMin= -504.817354204434     IErMin=15 ErrMin= 7.85D-07
 ErrMax= 7.85D-07 EMaxC= 1.00D-01 BMatC= 1.44D-09 BMatP= 6.73D-09
 IDIUse=1 WtCom= 1.00D+00 WtEn= 0.00D+00
 Coeff-Com: -0.514D-06-0.301D-05 0.627D-05-0.673D-05-0.661D-04-0.361D-03
 Coeff-Com:  0.210D-03 0.153D-02 0.158D-02 0.203D-02-0.174D-01-0.433D-01
 Coeff-Com:  0.471D-02 0.382D+00 0.669D+00
 Coeff:     -0.514D-06-0.301D-05 0.627D-05-0.673D-05-0.661D-04-0.361D-03
 Coeff:      0.210D-03 0.153D-02 0.158D-02 0.203D-02-0.174D-01-0.433D-01
 Coeff:      0.471D-02 0.382D+00 0.669D+00
 Gap=     0.220 Goal=   None    Shift=    0.000
 Gap=     0.151 Goal=   None    Shift=    0.000
 RMSDP=2.76D-07 MaxDP=4.27D-05 DE=-2.12D-09 OVMax= 3.20D-06

 Cycle  16  Pass 1  IDiag  1:
 RMSU=  8.96D-08    CP:  4.34D-01  8.93D-01  7.84D-01  1.48D-01  6.11D-02
                    CP:  1.16D+00  1.27D+00  1.32D+00  1.07D+00  1.13D+00
                    CP:  1.07D+00  1.14D+00  1.19D+00  1.05D+00  8.08D-01
 E= -504.817354204764     Delta-E=       -0.000000000329 Rises=F Damp=F
 DIIS: error= 4.39D-07 at cycle  16 NSaved=  16.
 NSaved=16 IEnMin=16 EnMin= -504.817354204764     IErMin=16 ErrMin= 4.39D-07
 ErrMax= 4.39D-07 EMaxC= 1.00D-01 BMatC= 1.66D-10 BMatP= 1.44D-09
 IDIUse=1 WtCom= 1.00D+00 WtEn= 0.00D+00
 Coeff-Com: -0.440D-06-0.314D-06 0.332D-05-0.964D-06-0.153D-04-0.102D-03
 Coeff-Com:  0.153D-04 0.272D-03 0.469D-03 0.188D-02-0.144D-02-0.119D-01
 Coeff-Com: -0.347D-01-0.290D-02 0.245D+00 0.803D+00
 Coeff:     -0.440D-06-0.314D-06 0.332D-05-0.964D-06-0.153D-04-0.102D-03
 Coeff:      0.153D-04 0.272D-03 0.469D-03 0.188D-02-0.144D-02-0.119D-01
 Coeff:     -0.347D-01-0.290D-02 0.245D+00 0.803D+00
 Gap=     0.220 Goal=   None    Shift=    0.000
 Gap=     0.151 Goal=   None    Shift=    0.000
 RMSDP=1.05D-07 MaxDP=1.28D-05 DE=-3.29D-10 OVMax= 2.18D-06

 Cycle  17  Pass 1  IDiag  1:
 RMSU=  3.44D-08    CP:  4.34D-01  8.93D-01  7.84D-01  1.48D-01  6.11D-02
                    CP:  1.16D+00  1.27D+00  1.32D+00  1.07D+00  1.13D+00
                    CP:  1.07D+00  1.14D+00  1.19D+00  1.07D+00  8.24D-01
                    CP:  9.20D-01
 E= -504.817354204817     Delta-E=       -0.000000000054 Rises=F Damp=F
 DIIS: error= 1.10D-07 at cycle  17 NSaved=  17.
 NSaved=17 IEnMin=17 EnMin= -504.817354204817     IErMin=17 ErrMin= 1.10D-07
 ErrMax= 1.10D-07 EMaxC= 1.00D-01 BMatC= 2.36D-11 BMatP= 1.66D-10
 IDIUse=1 WtCom= 1.00D+00 WtEn= 0.00D+00
 Coeff-Com: -0.269D-06 0.630D-06 0.726D-06-0.505D-06 0.195D-05 0.526D-05
 Coeff-Com: -0.232D-04-0.111D-03-0.347D-04 0.447D-03 0.192D-02 0.171D-02
 Coeff-Com: -0.130D-01-0.564D-01-0.828D-02 0.288D+00 0.786D+00
 Coeff:     -0.269D-06 0.630D-06 0.726D-06-0.505D-06 0.195D-05 0.526D-05
 Coeff:     -0.232D-04-0.111D-03-0.347D-04 0.447D-03 0.192D-02 0.171D-02
 Coeff:     -0.130D-01-0.564D-01-0.828D-02 0.288D+00 0.786D+00
 Gap=     0.220 Goal=   None    Shift=    0.000
 Gap=     0.151 Goal=   None    Shift=    0.000
 RMSDP=4.32D-08 MaxDP=4.35D-06 DE=-5.39D-11 OVMax= 6.14D-07

 Cycle  18  Pass 1  IDiag  1:
 RMSU=  1.33D-08    CP:  4.34D-01  8.93D-01  7.84D-01  1.48D-01  6.11D-02
                    CP:  1.16D+00  1.27D+00  1.32D+00  1.07D+00  1.13D+00
                    CP:  1.07D+00  1.14D+00  1.19D+00  1.07D+00  8.48D-01
                    CP:  9.95D-01  8.73D-01
 E= -504.817354204823     Delta-E=       -0.000000000005 Rises=F Damp=F
 DIIS: error= 3.93D-08 at cycle  18 NSaved=  18.
 NSaved=18 IEnMin=18 EnMin= -504.817354204823     IErMin=18 ErrMin= 3.93D-08
 ErrMax= 3.93D-08 EMaxC= 1.00D-01 BMatC= 2.15D-12 BMatP= 2.36D-11
 IDIUse=1 WtCom= 1.00D+00 WtEn= 0.00D+00
 Coeff-Com: -0.268D-06 0.569D-06 0.356D-06-0.143D-06 0.225D-05 0.857D-05
 Coeff-Com: -0.104D-04-0.614D-04-0.504D-04 0.320D-04 0.792D-03 0.155D-02
 Coeff-Com: -0.185D-02-0.210D-01-0.255D-01 0.334D-01 0.296D+00 0.717D+00
 Coeff:     -0.268D-06 0.569D-06 0.356D-06-0.143D-06 0.225D-05 0.857D-05
 Coeff:     -0.104D-04-0.614D-04-0.504D-04 0.320D-04 0.792D-03 0.155D-02
 Coeff:     -0.185D-02-0.210D-01-0.255D-01 0.334D-01 0.296D+00 0.717D+00
 Gap=     0.220 Goal=   None    Shift=    0.000
 Gap=     0.151 Goal=   None    Shift=    0.000
 RMSDP=1.18D-08 MaxDP=1.49D-06 DE=-5.46D-12 OVMax= 1.71D-07

 Cycle  19  Pass 1  IDiag  1:
 RMSU=  3.03D-09    CP:  4.34D-01  8.93D-01  7.84D-01  1.48D-01  6.11D-02
                    CP:  1.16D+00  1.27D+00  1.32D+00  1.07D+00  1.13D+00
                    CP:  1.07D+00  1.14D+00  1.19D+00  1.07D+00  8.47D-01
                    CP:  9.98D-01  9.33D-01  9.52D-01
 E= -504.817354204819     Delta-E=        0.000000000004 Rises=F Damp=F
 DIIS: error= 1.22D-08 at cycle  19 NSaved=  19.
 NSaved=19 IEnMin=18 EnMin= -504.817354204823     IErMin=19 ErrMin= 1.22D-08
 ErrMax= 1.22D-08 EMaxC= 1.00D-01 BMatC= 3.45D-13 BMatP= 2.15D-12
 IDIUse=1 WtCom= 1.00D+00 WtEn= 0.00D+00
 Coeff-Com:  0.285D-07-0.675D-07 0.104D-06-0.488D-07 0.531D-06 0.259D-05
 Coeff-Com: -0.165D-05-0.106D-04-0.164D-04-0.289D-04 0.471D-04 0.334D-03
 Coeff-Com:  0.112D-02 0.686D-04-0.839D-02-0.290D-01-0.178D-02 0.283D+00
 Coeff-Com:  0.755D+00
 Coeff:      0.285D-07-0.675D-07 0.104D-06-0.488D-07 0.531D-06 0.259D-05
 Coeff:     -0.165D-05-0.106D-04-0.164D-04-0.289D-04 0.471D-04 0.334D-03
 Coeff:      0.112D-02 0.686D-04-0.839D-02-0.290D-01-0.178D-02 0.283D+00
 Coeff:      0.755D+00
 Gap=     0.220 Goal=   None    Shift=    0.000
 Gap=     0.151 Goal=   None    Shift=    0.000
 RMSDP=2.97D-09 MaxDP=3.16D-07 DE= 4.09D-12 OVMax= 8.42D-08

 SCF Done:  E(UB3LYP) =  -504.817354205     A.U. after   19 cycles
             Convg  =    0.2969D-08             -V/T =  2.0041
 <Sx>= 0.0000 <Sy>= 0.0000 <Sz>= 0.5000 <S**2>= 0.7528 S= 0.5014
 <L.S>= 0.000000000000E+00
 KE= 5.027589157733D+02 PE=-2.475187783950D+03 EE= 8.182227983384D+02
 Annihilation of the first spin contaminant:
 S**2 before annihilation     0.7528,   after     0.7500
 Leave Link  502 at Fri Feb  7 00:07:21 2014, MaxMem= 4026531840 cpu:    3253.6
 (Enter /usr/caen/gaussian-09revc/g09/l601.exe)
 Copying SCF densities to generalized density rwf, IOpCl= 1 IROHF=0.

 **********************************************************************

            Population analysis using the SCF density.

 **********************************************************************

 Orbital symmetries:
 Alpha Orbitals:
       Occupied  (A) (A) (A) (A) (A) (A) (A) (A) (A) (A) (A) (A)
                 (A) (A) (A) (A) (A) (A) (A) (A) (A) (A) (A) (A)
                 (A) (A) (A) (A) (A) (A) (A) (A) (A) (A) (A) (A)
                 (A) (A) (A) (A) (A) (A) (A) (A) (A)
       Virtual   (A) (A) (A) (A) (A) (A) (A) (A) (A) (A) (A) (A)
                 (A) (A) (A) (A) (A) (A) (A) (A) (A) (A) (A) (A)
                 (A) (A) (A) (A) (A) (A) (A) (A) (A) (A) (A) (A)
                 (A) (A) (A) (A) (A) (A) (A) (A) (A) (A) (A) (A)
                 (A) (A) (A) (A) (A) (A) (A) (A) (A) (A) (A) (A)
                 (A) (A) (A) (A) (A) (A) (A) (A) (A) (A) (A) (A)
                 (A) (A) (A) (A) (A) (A) (A) (A) (A) (A) (A) (A)
                 (A) (A) (A) (A) (A) (A) (A) (A) (A) (A) (A) (A)
                 (A) (A) (A) (A) (A) (A) (A) (A) (A) (A) (A) (A)
                 (A) (A) (A) (A) (A) (A) (A) (A) (A) (A) (A) (A)
                 (A) (A) (A) (A) (A) (A) (A) (A) (A) (A) (A) (A)
                 (A) (A) (A) (A) (A) (A) (A) (A) (A) (A) (A) (A)
                 (A) (A) (A) (A) (A) (A) (A) (A) (A) (A) (A) (A)
                 (A) (A) (A) (A) (A) (A) (A) (A) (A) (A) (A) (A)
                 (A) (A) (A) (A) (A) (A) (A) (A) (A) (A) (A) (A)
                 (A) (A) (A) (A) (A) (A) (A) (A) (A) (A) (A) (A)
                 (A) (A) (A) (A) (A) (A) (A) (A) (A) (A) (A) (A)
                 (A) (A) (A) (A) (A) (A) (A) (A) (A) (A) (A) (A)
                 (A) (A) (A) (A) (A) (A) (A) (A) (A) (A) (A) (A)
                 (A) (A) (A) (A) (A) (A) (A) (A) (A) (A) (A) (A)
                 (A) (A) (A) (A) (A) (A) (A) (A) (A) (A) (A) (A)
                 (A) (A) (A) (A) (A) (A) (A) (A) (A) (A) (A) (A)
                 (A) (A) (A) (A) (A) (A) (A) (A) (A) (A) (A) (A)
                 (A) (A) (A) (A) (A) (A) (A) (A) (A) (A) (A) (A)
                 (A) (A) (A) (A) (A) (A) (A) (A) (A) (A) (A) (A)
                 (A) (A) (A) (A) (A) (A) (A) (A) (A) (A) (A) (A)
                 (A) (A) (A) (A) (A) (A) (A) (A) (A) (A) (A) (A)
                 (A) (A) (A) (A) (A) (A)
 Beta  Orbitals:
       Occupied  (A) (A) (A) (A) (A) (A) (A) (A) (A) (A) (A) (A)
                 (A) (A) (A) (A) (A) (A) (A) (A) (A) (A) (A) (A)
                 (A) (A) (A) (A) (A) (A) (A) (A) (A) (A) (A) (A)
                 (A) (A) (A) (A) (A) (A) (A) (A)
       Virtual   (A) (A) (A) (A) (A) (A) (A) (A) (A) (A) (A) (A)
                 (A) (A) (A) (A) (A) (A) (A) (A) (A) (A) (A) (A)
                 (A) (A) (A) (A) (A) (A) (A) (A) (A) (A) (A) (A)
                 (A) (A) (A) (A) (A) (A) (A) (A) (A) (A) (A) (A)
                 (A) (A) (A) (A) (A) (A) (A) (A) (A) (A) (A) (A)
                 (A) (A) (A) (A) (A) (A) (A) (A) (A) (A) (A) (A)
                 (A) (A) (A) (A) (A) (A) (A) (A) (A) (A) (A) (A)
                 (A) (A) (A) (A) (A) (A) (A) (A) (A) (A) (A) (A)
                 (A) (A) (A) (A) (A) (A) (A) (A) (A) (A) (A) (A)
                 (A) (A) (A) (A) (A) (A) (A) (A) (A) (A) (A) (A)
                 (A) (A) (A) (A) (A) (A) (A) (A) (A) (A) (A) (A)
                 (A) (A) (A) (A) (A) (A) (A) (A) (A) (A) (A) (A)
                 (A) (A) (A) (A) (A) (A) (A) (A) (A) (A) (A) (A)
                 (A) (A) (A) (A) (A) (A) (A) (A) (A) (A) (A) (A)
                 (A) (A) (A) (A) (A) (A) (A) (A) (A) (A) (A) (A)
                 (A) (A) (A) (A) (A) (A) (A) (A) (A) (A) (A) (A)
                 (A) (A) (A) (A) (A) (A) (A) (A) (A) (A) (A) (A)
                 (A) (A) (A) (A) (A) (A) (A) (A) (A) (A) (A) (A)
                 (A) (A) (A) (A) (A) (A) (A) (A) (A) (A) (A) (A)
                 (A) (A) (A) (A) (A) (A) (A) (A) (A) (A) (A) (A)
                 (A) (A) (A) (A) (A) (A) (A) (A) (A) (A) (A) (A)
                 (A) (A) (A) (A) (A) (A) (A) (A) (A) (A) (A) (A)
                 (A) (A) (A) (A) (A) (A) (A) (A) (A) (A) (A) (A)
                 (A) (A) (A) (A) (A) (A) (A) (A) (A) (A) (A) (A)
                 (A) (A) (A) (A) (A) (A) (A) (A) (A) (A) (A) (A)
                 (A) (A) (A) (A) (A) (A) (A) (A) (A) (A) (A) (A)
                 (A) (A) (A) (A) (A) (A) (A) (A) (A) (A) (A) (A)
                 (A) (A) (A) (A) (A) (A) (A)
 The electronic state is 2-A.
 Alpha  occ. eigenvalues --  -19.17219 -19.16767 -10.21959 -10.18243 -10.17793
 Alpha  occ. eigenvalues --  -10.17575 -10.16437 -10.16058 -10.15846 -10.15799
 Alpha  occ. eigenvalues --  -10.15500  -1.17528  -0.90019  -0.81888  -0.79859
 Alpha  occ. eigenvalues --   -0.74670  -0.68037  -0.67863  -0.67206  -0.60379
 Alpha  occ. eigenvalues --   -0.57415  -0.55794  -0.54413  -0.49747  -0.47434
 Alpha  occ. eigenvalues --   -0.47073  -0.44372  -0.43871  -0.42869  -0.41898
 Alpha  occ. eigenvalues --   -0.41116  -0.39905  -0.38859  -0.37804  -0.36546
 Alpha  occ. eigenvalues --   -0.36164  -0.35173  -0.33949  -0.33214  -0.32353
 Alpha  occ. eigenvalues --   -0.32076  -0.30740  -0.30417  -0.23539  -0.23074
 Alpha virt. eigenvalues --   -0.01049  -0.00273  -0.00045   0.00880   0.01563
 Alpha virt. eigenvalues --    0.02243   0.02270   0.03363   0.03766   0.04043
 Alpha virt. eigenvalues --    0.04397   0.04916   0.05381   0.06019   0.06324
 Alpha virt. eigenvalues --    0.06833   0.07235   0.08232   0.08362   0.08875
 Alpha virt. eigenvalues --    0.09456   0.10022   0.10852   0.11004   0.11585
 Alpha virt. eigenvalues --    0.11775   0.12132   0.12410   0.12513   0.12818
 Alpha virt. eigenvalues --    0.13272   0.13495   0.13739   0.14232   0.14448
 Alpha virt. eigenvalues --    0.14512   0.14709   0.15198   0.15350   0.15775
 Alpha virt. eigenvalues --    0.15936   0.16503   0.16874   0.17339   0.17864
 Alpha virt. eigenvalues --    0.18202   0.18330   0.18537   0.18701   0.19106
 Alpha virt. eigenvalues --    0.19362   0.20033   0.20713   0.20826   0.21477
 Alpha virt. eigenvalues --    0.21833   0.22023   0.22293   0.22618   0.23228
 Alpha virt. eigenvalues --    0.23578   0.24049   0.24604   0.25472   0.25571
 Alpha virt. eigenvalues --    0.26439   0.26726   0.26809   0.27871   0.28239
 Alpha virt. eigenvalues --    0.28652   0.29143   0.30206   0.30420   0.31645
 Alpha virt. eigenvalues --    0.31744   0.32600   0.33055   0.33915   0.34322
 Alpha virt. eigenvalues --    0.34622   0.35025   0.35448   0.35898   0.37056
 Alpha virt. eigenvalues --    0.37464   0.38952   0.39350   0.39884   0.40789
 Alpha virt. eigenvalues --    0.42646   0.43996   0.46012   0.46330   0.47879
 Alpha virt. eigenvalues --    0.47959   0.50544   0.51776   0.52512   0.53996
 Alpha virt. eigenvalues --    0.54303   0.54776   0.55874   0.56777   0.58255
 Alpha virt. eigenvalues --    0.59426   0.59517   0.60965   0.61753   0.63716
 Alpha virt. eigenvalues --    0.64466   0.65188   0.65707   0.66249   0.66585
 Alpha virt. eigenvalues --    0.67682   0.68074   0.69157   0.69853   0.70035
 Alpha virt. eigenvalues --    0.70672   0.71519   0.71604   0.73119   0.73340
 Alpha virt. eigenvalues --    0.74622   0.75124   0.75325   0.76528   0.77325
 Alpha virt. eigenvalues --    0.77914   0.78649   0.79518   0.80294   0.82009
 Alpha virt. eigenvalues --    0.83559   0.85410   0.85502   0.88396   0.91537
 Alpha virt. eigenvalues --    0.95220   0.96066   0.98630   1.00589   1.01418
 Alpha virt. eigenvalues --    1.03161   1.04396   1.06186   1.07651   1.09565
 Alpha virt. eigenvalues --    1.10303   1.13468   1.14419   1.14614   1.16601
 Alpha virt. eigenvalues --    1.19170   1.21065   1.21569   1.24838   1.25930
 Alpha virt. eigenvalues --    1.27674   1.31938   1.33746   1.36330   1.37301
 Alpha virt. eigenvalues --    1.42047   1.42745   1.45250   1.46008   1.47397
 Alpha virt. eigenvalues --    1.48458   1.49664   1.51181   1.52896   1.54166
 Alpha virt. eigenvalues --    1.54892   1.57044   1.57918   1.58936   1.59770
 Alpha virt. eigenvalues --    1.60020   1.60681   1.60883   1.61893   1.62364
 Alpha virt. eigenvalues --    1.63604   1.64917   1.65069   1.66000   1.66295
 Alpha virt. eigenvalues --    1.67331   1.68564   1.69435   1.70002   1.71677
 Alpha virt. eigenvalues --    1.72712   1.73197   1.75364   1.76754   1.77269
 Alpha virt. eigenvalues --    1.78548   1.79213   1.80394   1.81919   1.82917
 Alpha virt. eigenvalues --    1.84146   1.85437   1.88697   1.89267   1.90411
 Alpha virt. eigenvalues --    1.93364   1.95374   1.97861   2.00482   2.03578
 Alpha virt. eigenvalues --    2.03836   2.05124   2.06165   2.08705   2.10195
 Alpha virt. eigenvalues --    2.11069   2.14250   2.15233   2.18358   2.19016
 Alpha virt. eigenvalues --    2.21221   2.24901   2.26605   2.28661   2.29786
 Alpha virt. eigenvalues --    2.31312   2.32857   2.34842   2.36048   2.41323
 Alpha virt. eigenvalues --    2.41929   2.42688   2.45645   2.47873   2.47966
 Alpha virt. eigenvalues --    2.48717   2.49185   2.49889   2.51015   2.52288
 Alpha virt. eigenvalues --    2.53608   2.54461   2.54810   2.56293   2.58152
 Alpha virt. eigenvalues --    2.59077   2.59668   2.61398   2.62302   2.63528
 Alpha virt. eigenvalues --    2.64337   2.66686   2.67789   2.69179   2.69591
 Alpha virt. eigenvalues --    2.70762   2.71848   2.73815   2.75978   2.76863
 Alpha virt. eigenvalues --    2.78087   2.80487   2.82143   2.84010   2.85340
 Alpha virt. eigenvalues --    2.86125   2.90891   2.91723   2.93415   2.94514
 Alpha virt. eigenvalues --    2.95227   2.96337   2.99249   2.99628   3.00800
 Alpha virt. eigenvalues --    3.03339   3.04703   3.06524   3.11756   3.14271
 Alpha virt. eigenvalues --    3.19092   3.21022   3.25517   3.33219   3.40761
 Alpha virt. eigenvalues --    3.44560   3.49632   3.52499   3.73609   3.77530
 Alpha virt. eigenvalues --    3.79440   3.80709   3.81324   3.82636   3.83706
 Alpha virt. eigenvalues --    3.85143   3.86574   3.89234   3.92738   3.98412
 Alpha virt. eigenvalues --    3.98600   4.02514   4.11590   4.20139   4.24438
 Alpha virt. eigenvalues --    4.29831   4.32700   4.40853   4.90603   4.96477
 Alpha virt. eigenvalues --    5.10415   5.34477   5.56115   6.11192  23.81745
 Alpha virt. eigenvalues --   23.83698  23.85525  23.87538  23.91172  23.92515
 Alpha virt. eigenvalues --   23.94173  23.97262  23.99066  49.85866  49.90313
  Beta  occ. eigenvalues --  -19.17219 -19.16767 -10.21959 -10.17814 -10.17575
  Beta  occ. eigenvalues --  -10.16775 -10.16314 -10.16047 -10.15846 -10.15790
  Beta  occ. eigenvalues --  -10.15500  -1.17528  -0.90019  -0.81599  -0.79591
  Beta  occ. eigenvalues --   -0.74442  -0.68036  -0.67459  -0.65440  -0.60168
  Beta  occ. eigenvalues --   -0.57408  -0.55262  -0.54396  -0.49736  -0.47383
  Beta  occ. eigenvalues --   -0.46866  -0.44230  -0.43699  -0.42607  -0.41591
  Beta  occ. eigenvalues --   -0.41029  -0.39514  -0.38361  -0.37434  -0.36436
  Beta  occ. eigenvalues --   -0.36065  -0.35079  -0.33604  -0.32968  -0.32172
  Beta  occ. eigenvalues --   -0.31950  -0.30657  -0.30380  -0.23079
  Beta virt. eigenvalues --   -0.07936  -0.01038  -0.00233  -0.00008   0.00947
  Beta virt. eigenvalues --    0.01585   0.02267   0.02400   0.03416   0.03772
  Beta virt. eigenvalues --    0.04050   0.04448   0.04940   0.05399   0.06009
  Beta virt. eigenvalues --    0.06394   0.06831   0.07393   0.08229   0.08378
  Beta virt. eigenvalues --    0.08962   0.09553   0.10191   0.10857   0.11155
  Beta virt. eigenvalues --    0.11630   0.11842   0.12167   0.12423   0.12576
  Beta virt. eigenvalues --    0.12832   0.13304   0.13674   0.13761   0.14247
  Beta virt. eigenvalues --    0.14539   0.14554   0.14890   0.15217   0.15358
  Beta virt. eigenvalues --    0.15830   0.16046   0.16623   0.16893   0.17377
  Beta virt. eigenvalues --    0.17972   0.18277   0.18360   0.18607   0.18793
  Beta virt. eigenvalues --    0.19143   0.19544   0.20106   0.20740   0.20966
  Beta virt. eigenvalues --    0.21673   0.21915   0.22137   0.22332   0.22664
  Beta virt. eigenvalues --    0.23408   0.23771   0.24171   0.24711   0.25642
  Beta virt. eigenvalues --    0.25725   0.26610   0.26862   0.27094   0.27890
  Beta virt. eigenvalues --    0.28478   0.28853   0.29287   0.30256   0.30923
  Beta virt. eigenvalues --    0.31716   0.31909   0.32743   0.33089   0.34052
  Beta virt. eigenvalues --    0.34408   0.34822   0.35094   0.35465   0.35983
  Beta virt. eigenvalues --    0.37124   0.37470   0.38976   0.39358   0.40073
  Beta virt. eigenvalues --    0.40915   0.42705   0.44090   0.46133   0.46615
  Beta virt. eigenvalues --    0.47907   0.48259   0.50611   0.51888   0.52654
  Beta virt. eigenvalues --    0.54133   0.54422   0.54909   0.56194   0.57017
  Beta virt. eigenvalues --    0.58328   0.59496   0.59759   0.61135   0.61969
  Beta virt. eigenvalues --    0.63932   0.64980   0.65419   0.65908   0.66630
  Beta virt. eigenvalues --    0.67587   0.67833   0.68183   0.69491   0.69988
  Beta virt. eigenvalues --    0.70244   0.71379   0.71569   0.72012   0.73626
  Beta virt. eigenvalues --    0.74492   0.74731   0.75296   0.75510   0.76580
  Beta virt. eigenvalues --    0.77537   0.77958   0.78851   0.79531   0.80334
  Beta virt. eigenvalues --    0.82064   0.83713   0.85527   0.86128   0.88781
  Beta virt. eigenvalues --    0.92181   0.96032   0.96221   0.98983   1.00812
  Beta virt. eigenvalues --    1.01546   1.03292   1.04531   1.06238   1.07794
  Beta virt. eigenvalues --    1.09722   1.10464   1.13612   1.14439   1.14979
  Beta virt. eigenvalues --    1.16962   1.19265   1.21116   1.22248   1.25261
  Beta virt. eigenvalues --    1.26175   1.27704   1.31946   1.33789   1.36397
  Beta virt. eigenvalues --    1.39179   1.42143   1.43419   1.45405   1.46121
  Beta virt. eigenvalues --    1.47962   1.48494   1.49784   1.51214   1.53406
  Beta virt. eigenvalues --    1.54248   1.55097   1.57150   1.57933   1.59068
  Beta virt. eigenvalues --    1.59848   1.60077   1.60945   1.61284   1.62172
  Beta virt. eigenvalues --    1.62543   1.63760   1.65126   1.65300   1.66069
  Beta virt. eigenvalues --    1.67103   1.67450   1.68759   1.69708   1.70340
  Beta virt. eigenvalues --    1.72154   1.72980   1.73596   1.75748   1.76864
  Beta virt. eigenvalues --    1.77530   1.78635   1.79379   1.80554   1.82128
  Beta virt. eigenvalues --    1.82983   1.84197   1.85877   1.88794   1.89285
  Beta virt. eigenvalues --    1.90898   1.93849   1.95498   1.98420   2.00720
  Beta virt. eigenvalues --    2.03712   2.04085   2.05507   2.07595   2.09370
  Beta virt. eigenvalues --    2.10492   2.11190   2.14392   2.15416   2.18496
  Beta virt. eigenvalues --    2.19203   2.21600   2.25161   2.26964   2.28825
  Beta virt. eigenvalues --    2.29891   2.31631   2.33019   2.35148   2.36174
  Beta virt. eigenvalues --    2.41524   2.41995   2.42732   2.45859   2.47952
  Beta virt. eigenvalues --    2.48284   2.48772   2.49348   2.50033   2.51398
  Beta virt. eigenvalues --    2.52445   2.53785   2.54634   2.54931   2.56423
  Beta virt. eigenvalues --    2.58484   2.59233   2.59770   2.61443   2.62448
  Beta virt. eigenvalues --    2.63622   2.64419   2.66817   2.67897   2.69292
  Beta virt. eigenvalues --    2.69671   2.70807   2.72329   2.73992   2.76195
  Beta virt. eigenvalues --    2.77025   2.78139   2.80710   2.82185   2.84127
  Beta virt. eigenvalues --    2.85625   2.86195   2.90999   2.92308   2.93707
  Beta virt. eigenvalues --    2.94646   2.96421   2.97339   2.99452   3.00100
  Beta virt. eigenvalues --    3.01160   3.03378   3.04830   3.06752   3.11761
  Beta virt. eigenvalues --    3.14336   3.20215   3.21661   3.25737   3.33230
  Beta virt. eigenvalues --    3.40920   3.44584   3.49833   3.52612   3.74943
  Beta virt. eigenvalues --    3.77589   3.79517   3.80715   3.81564   3.82654
  Beta virt. eigenvalues --    3.83736   3.85269   3.86598   3.89291   3.92739
  Beta virt. eigenvalues --    3.98586   3.98676   4.02523   4.11705   4.20448
  Beta virt. eigenvalues --    4.25021   4.29832   4.32768   4.40891   4.90603
  Beta virt. eigenvalues --    4.96477   5.10414   5.34477   5.56115   6.11192
  Beta virt. eigenvalues --   23.82366  23.83727  23.86380  23.87577  23.91301
  Beta virt. eigenvalues --   23.92543  23.94178  23.97390  23.99067  49.85866
  Beta virt. eigenvalues --   49.90313
          Condensed to atoms (all electrons):
              1          2          3          4          5          6
     1  C    6.133213   0.406898   0.413391   0.386229  -0.782015  -0.094397
     2  H    0.406898   0.595109  -0.043073  -0.026509  -0.106922  -0.017269
     3  H    0.413391  -0.043073   0.517645  -0.031743   0.070555   0.015703
     4  H    0.386229  -0.026509  -0.031743   0.578499  -0.000941  -0.010834
     5  C   -0.782015  -0.106922   0.070555  -0.000941   9.353049   0.491704
     6  H   -0.094397  -0.017269   0.015703  -0.010834   0.491704   0.632712
     7  C    0.673303   0.032286  -0.105996   0.024989  -3.128778  -0.131827
     8  H    0.012621  -0.000502   0.001175   0.001314  -0.132918  -0.011708
     9  H    0.004225   0.003627   0.008690  -0.003631  -0.008743   0.013119
    10  C   -0.202072   0.002243   0.012804  -0.006056   0.631018  -0.010610
    11  H    0.012162   0.000322   0.000506   0.000345  -0.085112  -0.005627
    12  H   -0.002211   0.001675   0.001579  -0.000757   0.052910   0.009205
    13  C   -0.090157   0.004074  -0.003060  -0.004035  -0.285600   0.009886
    14  H    0.004265  -0.001030   0.000307   0.000284  -0.000987  -0.000920
    15  H   -0.007675   0.001877  -0.000453  -0.000415  -0.010217  -0.000018
    16  C   -0.001850   0.002732   0.000001  -0.001153  -0.176480  -0.007801
    17  H    0.001942   0.000057   0.000005  -0.000018  -0.000248  -0.001030
    18  C   -0.004795   0.000065  -0.000016  -0.000082   0.001123   0.000735
    19  H    0.000162   0.000051   0.000000  -0.000008  -0.000893   0.000003
    20  H   -0.000167   0.000016  -0.000005  -0.000006  -0.000261  -0.000036
    21  H   -0.000121  -0.000103   0.000010   0.000018   0.001191   0.000052
    22  C   -0.293843   0.018816  -0.040409  -0.044985  -0.289443  -0.041924
    23  H   -0.045837   0.004230  -0.000683  -0.000864  -0.126382   0.002832
    24  H    0.047021  -0.004821   0.002100   0.001534  -0.034532  -0.004129
    25  C   -0.002114  -0.000393   0.000127   0.000073  -0.002929   0.004846
    26  H    0.000309  -0.000008   0.000011   0.000001  -0.000401   0.000120
    27  H   -0.000587   0.000029  -0.000046  -0.000007   0.000080  -0.000322
    28  O    0.066039  -0.000147   0.010296  -0.003246  -0.194304   0.013200
    29  O   -0.025405   0.000682  -0.001428  -0.001303  -0.143330  -0.009055
    30  H   -0.006771  -0.000121  -0.000954   0.000629   0.051709   0.003058
              7          8          9         10         11         12
     1  C    0.673303   0.012621   0.004225  -0.202072   0.012162  -0.002211
     2  H    0.032286  -0.000502   0.003627   0.002243   0.000322   0.001675
     3  H   -0.105996   0.001175   0.008690   0.012804   0.000506   0.001579
     4  H    0.024989   0.001314  -0.003631  -0.006056   0.000345  -0.000757
     5  C   -3.128778  -0.132918  -0.008743   0.631018  -0.085112   0.052910
     6  H   -0.131827  -0.011708   0.013119  -0.010610  -0.005627   0.009205
     7  C   10.882708   0.488674   0.432024  -2.191592   0.011403  -0.238434
     8  H    0.488674   0.664522  -0.075958  -0.104560  -0.027351   0.011603
     9  H    0.432024  -0.075958   0.529193  -0.029050   0.018204  -0.010754
    10  C   -2.191592  -0.104560  -0.029050   8.015164   0.498106   0.534178
    11  H    0.011403  -0.027351   0.018204   0.498106   0.700328  -0.108061
    12  H   -0.238434   0.011603  -0.010754   0.534178  -0.108061   0.654248
    13  C    0.541335  -0.012588   0.000301  -1.506029  -0.146748  -0.042788
    14  H    0.002330  -0.000200   0.007395  -0.079234   0.021982  -0.011846
    15  H   -0.075237   0.001035  -0.000735  -0.061635  -0.029700   0.018143
    16  C   -0.501281  -0.015184   0.001789   0.394098   0.049869   0.014166
    17  H   -0.010067  -0.001030   0.000524  -0.002702   0.014874   0.010014
    18  C   -0.107601  -0.006899   0.002687  -0.180503  -0.007485   0.003322
    19  H   -0.002399  -0.001146   0.000866  -0.001852   0.001292   0.002301
    20  H   -0.006102  -0.000209   0.000264   0.003209  -0.000125   0.000508
    21  H    0.002381   0.002325  -0.001082  -0.003277  -0.000026  -0.002020
    22  C   -0.146415   0.041305  -0.045187   0.257603  -0.006147  -0.023242
    23  H    0.083356   0.002617  -0.002276  -0.008907  -0.001386   0.002072
    24  H   -0.034537   0.007991  -0.007707   0.039829  -0.000852   0.000181
    25  C    0.155430   0.011771  -0.008296  -0.023185  -0.037965   0.018652
    26  H    0.013580   0.000751  -0.000406   0.017013  -0.001638   0.002097
    27  H   -0.028264  -0.001334   0.000484   0.027296   0.003089   0.004643
    28  O    0.099048   0.009389  -0.007549  -0.036925   0.000402   0.005892
    29  O    0.053852  -0.002042   0.005618   0.038035   0.002973  -0.000295
    30  H   -0.018084   0.000052  -0.001709  -0.011563  -0.001316  -0.000497
             13         14         15         16         17         18
     1  C   -0.090157   0.004265  -0.007675  -0.001850   0.001942  -0.004795
     2  H    0.004074  -0.001030   0.001877   0.002732   0.000057   0.000065
     3  H   -0.003060   0.000307  -0.000453   0.000001   0.000005  -0.000016
     4  H   -0.004035   0.000284  -0.000415  -0.001153  -0.000018  -0.000082
     5  C   -0.285600  -0.000987  -0.010217  -0.176480  -0.000248   0.001123
     6  H    0.009886  -0.000920  -0.000018  -0.007801  -0.001030   0.000735
     7  C    0.541335   0.002330  -0.075237  -0.501281  -0.010067  -0.107601
     8  H   -0.012588  -0.000200   0.001035  -0.015184  -0.001030  -0.006899
     9  H    0.000301   0.007395  -0.000735   0.001789   0.000524   0.002687
    10  C   -1.506029  -0.079234  -0.061635   0.394098  -0.002702  -0.180503
    11  H   -0.146748   0.021982  -0.029700   0.049869   0.014874  -0.007485
    12  H   -0.042788  -0.011846   0.018143   0.014166   0.010014   0.003322
    13  C    8.281029   0.422989   0.475635  -1.228987  -0.132828   0.298749
    14  H    0.422989   0.598006  -0.078926   0.018396   0.020294  -0.007999
    15  H    0.475635  -0.078926   0.675084  -0.059924  -0.013261   0.041783
    16  C   -1.228987   0.018396  -0.059924   6.774483   0.566966  -0.111800
    17  H   -0.132828   0.020294  -0.013261   0.566966   0.611350  -0.072365
    18  C    0.298749  -0.007999   0.041783  -0.111800  -0.072365   5.782768
    19  H   -0.078735   0.002497   0.004777   0.082572   0.013503   0.377239
    20  H    0.031790  -0.003048   0.001053  -0.068138  -0.009768   0.396453
    21  H   -0.000916   0.005095  -0.003117  -0.053867  -0.012128   0.390167
    22  C    0.069654  -0.003538   0.006311   0.023988  -0.001748   0.005756
    23  H    0.011634  -0.001003   0.000292   0.001097  -0.000169   0.000246
    24  H   -0.040490   0.002183  -0.001317  -0.003643   0.000199  -0.001076
    25  C    0.365823  -0.077600   0.016523  -0.259678  -0.125308  -0.167707
    26  H    0.015652  -0.002926  -0.004044  -0.080514  -0.010103  -0.019346
    27  H   -0.126818   0.011503   0.001890   0.137235   0.014722  -0.009390
    28  O   -0.011906   0.000226   0.000280   0.000906   0.000160  -0.000582
    29  O    0.024938   0.000020   0.000269   0.006161   0.000162   0.000625
    30  H   -0.002579  -0.000101  -0.000073  -0.001983  -0.000045  -0.000108
             19         20         21         22         23         24
     1  C    0.000162  -0.000167  -0.000121  -0.293843  -0.045837   0.047021
     2  H    0.000051   0.000016  -0.000103   0.018816   0.004230  -0.004821
     3  H    0.000000  -0.000005   0.000010  -0.040409  -0.000683   0.002100
     4  H   -0.000008  -0.000006   0.000018  -0.044985  -0.000864   0.001534
     5  C   -0.000893  -0.000261   0.001191  -0.289443  -0.126382  -0.034532
     6  H    0.000003  -0.000036   0.000052  -0.041924   0.002832  -0.004129
     7  C   -0.002399  -0.006102   0.002381  -0.146415   0.083356  -0.034537
     8  H   -0.001146  -0.000209   0.002325   0.041305   0.002617   0.007991
     9  H    0.000866   0.000264  -0.001082  -0.045187  -0.002276  -0.007707
    10  C   -0.001852   0.003209  -0.003277   0.257603  -0.008907   0.039829
    11  H    0.001292  -0.000125  -0.000026  -0.006147  -0.001386  -0.000852
    12  H    0.002301   0.000508  -0.002020  -0.023242   0.002072   0.000181
    13  C   -0.078735   0.031790  -0.000916   0.069654   0.011634  -0.040490
    14  H    0.002497  -0.003048   0.005095  -0.003538  -0.001003   0.002183
    15  H    0.004777   0.001053  -0.003117   0.006311   0.000292  -0.001317
    16  C    0.082572  -0.068138  -0.053867   0.023988   0.001097  -0.003643
    17  H    0.013503  -0.009768  -0.012128  -0.001748  -0.000169   0.000199
    18  C    0.377239   0.396453   0.390167   0.005756   0.000246  -0.001076
    19  H    0.565092  -0.032136  -0.049489  -0.000437   0.000013  -0.000156
    20  H   -0.032136   0.561655  -0.021103   0.000202   0.000011  -0.000095
    21  H   -0.049489  -0.021103   0.583773   0.000277   0.000000   0.000107
    22  C   -0.000437   0.000202   0.000277   6.254680   0.410960   0.308453
    23  H    0.000013   0.000011   0.000000   0.410960   0.552057  -0.027854
    24  H   -0.000156  -0.000095   0.000107   0.308453  -0.027854   0.580658
    25  C   -0.034055  -0.013432   0.029400   0.008834   0.000684  -0.003813
    26  H    0.000745  -0.001528   0.002428  -0.000952   0.000002   0.000465
    27  H    0.007172   0.003722  -0.005109   0.003105   0.000053  -0.001243
    28  O    0.000044  -0.000019  -0.000033   0.119971  -0.079824  -0.009420
    29  O   -0.000035   0.000028  -0.000026   0.055530   0.026329   0.015590
    30  H    0.000004  -0.000009   0.000008   0.006374  -0.003994  -0.006149
             25         26         27         28         29         30
     1  C   -0.002114   0.000309  -0.000587   0.066039  -0.025405  -0.006771
     2  H   -0.000393  -0.000008   0.000029  -0.000147   0.000682  -0.000121
     3  H    0.000127   0.000011  -0.000046   0.010296  -0.001428  -0.000954
     4  H    0.000073   0.000001  -0.000007  -0.003246  -0.001303   0.000629
     5  C   -0.002929  -0.000401   0.000080  -0.194304  -0.143330   0.051709
     6  H    0.004846   0.000120  -0.000322   0.013200  -0.009055   0.003058
     7  C    0.155430   0.013580  -0.028264   0.099048   0.053852  -0.018084
     8  H    0.011771   0.000751  -0.001334   0.009389  -0.002042   0.000052
     9  H   -0.008296  -0.000406   0.000484  -0.007549   0.005618  -0.001709
    10  C   -0.023185   0.017013   0.027296  -0.036925   0.038035  -0.011563
    11  H   -0.037965  -0.001638   0.003089   0.000402   0.002973  -0.001316
    12  H    0.018652   0.002097   0.004643   0.005892  -0.000295  -0.000497
    13  C    0.365823   0.015652  -0.126818  -0.011906   0.024938  -0.002579
    14  H   -0.077600  -0.002926   0.011503   0.000226   0.000020  -0.000101
    15  H    0.016523  -0.004044   0.001890   0.000280   0.000269  -0.000073
    16  C   -0.259678  -0.080514   0.137235   0.000906   0.006161  -0.001983
    17  H   -0.125308  -0.010103   0.014722   0.000160   0.000162  -0.000045
    18  C   -0.167707  -0.019346  -0.009390  -0.000582   0.000625  -0.000108
    19  H   -0.034055   0.000745   0.007172   0.000044  -0.000035   0.000004
    20  H   -0.013432  -0.001528   0.003722  -0.000019   0.000028  -0.000009
    21  H    0.029400   0.002428  -0.005109  -0.000033  -0.000026   0.000008
    22  C    0.008834  -0.000952   0.003105   0.119971   0.055530   0.006374
    23  H    0.000684   0.000002   0.000053  -0.079824   0.026329  -0.003994
    24  H   -0.003813   0.000465  -0.001243  -0.009420   0.015590  -0.006149
    25  C    5.856152   0.390580   0.318336   0.000002  -0.003841   0.001425
    26  H    0.390580   0.600260  -0.062261  -0.000011  -0.000055   0.000053
    27  H    0.318336  -0.062261   0.598011  -0.000329   0.000453  -0.000299
    28  O    0.000002  -0.000011  -0.000329   8.193703  -0.081625  -0.016359
    29  O   -0.003841  -0.000055   0.000453  -0.081625   8.127424   0.141810
    30  H    0.001425   0.000053  -0.000299  -0.016359   0.141810   0.583663
 Mulliken atomic charges:
              1
     1  C   -0.601760
     2  H    0.126110
     3  H    0.172961
     4  H    0.142678
     5  C    0.858097
     6  H    0.150332
     7  C   -0.770085
     8  H    0.136485
     9  H    0.174073
    10  C   -0.010843
    11  H    0.123683
    12  H    0.093514
    13  C   -0.839224
    14  H    0.151587
    15  H    0.101797
    16  C    0.497823
    17  H    0.138046
    18  C   -0.603964
    19  H    0.143006
    20  H    0.157274
    21  H    0.135186
    22  C   -0.653551
    23  H    0.200694
    24  H    0.175525
    25  C   -0.418341
    26  H    0.140124
    27  H    0.104185
    28  O   -0.077281
    29  O   -0.232059
    30  H    0.283931
 Sum of Mulliken atomic charges =   0.00000
 Mulliken charges with hydrogens summed into heavy atoms:
              1
     1  C   -0.160011
     5  C    1.008429
     7  C   -0.459528
    10  C    0.206353
    13  C   -0.585840
    16  C    0.635868
    18  C   -0.168498
    22  C   -0.277332
    25  C   -0.174032
    28  O   -0.077281
    29  O    0.051872
 Sum of Mulliken charges with hydrogens summed into heavy atoms =   0.00000
          Atomic-Atomic Spin Densities.
              1          2          3          4          5          6
     1  C    0.021997  -0.001017   0.000492   0.001101  -0.027487  -0.004565
     2  H   -0.001017   0.000010   0.000003  -0.000054   0.000663   0.000049
     3  H    0.000492   0.000003   0.000006   0.000017  -0.000653  -0.000047
     4  H    0.001101  -0.000054   0.000017   0.000090  -0.001113  -0.000156
     5  C   -0.027487   0.000663  -0.000653  -0.001113   0.040018   0.005024
     6  H   -0.004565   0.000049  -0.000047  -0.000156   0.005024   0.001387
     7  C    0.036907  -0.001001   0.000517   0.001105  -0.027946  -0.008321
     8  H    0.009400  -0.000146   0.000102   0.000199  -0.009941  -0.001436
     9  H   -0.004142   0.000001  -0.000085  -0.000068   0.005930   0.000599
    10  C   -0.021380   0.000859  -0.000177  -0.000774   0.014953   0.004216
    11  H   -0.000430   0.000068  -0.000011  -0.000020  -0.000139  -0.000049
    12  H   -0.001464  -0.000009   0.000002  -0.000053  -0.000008   0.000432
    13  C   -0.007109   0.000063  -0.000108  -0.000111   0.001645   0.002438
    14  H    0.000500  -0.000001   0.000013   0.000004  -0.001346  -0.000248
    15  H   -0.001659   0.000027  -0.000009  -0.000030   0.003131   0.000700
    16  C    0.000702   0.000029   0.000027  -0.000020  -0.008992  -0.001615
    17  H    0.000519  -0.000012   0.000005   0.000008   0.000064  -0.000400
    18  C   -0.001256   0.000014  -0.000009  -0.000016  -0.001080   0.000441
    19  H    0.000001  -0.000002   0.000000   0.000000  -0.000070  -0.000004
    20  H    0.000007   0.000000   0.000000   0.000000  -0.000012  -0.000006
    21  H    0.000185   0.000000   0.000001   0.000002   0.000041  -0.000057
    22  C   -0.004640   0.000492  -0.000108  -0.000290   0.008874   0.002307
    23  H    0.000126   0.000028   0.000000  -0.000019   0.000376   0.000065
    24  H    0.004508  -0.000103   0.000047   0.000200  -0.003893  -0.001386
    25  C    0.000321   0.000006   0.000004   0.000006   0.003052   0.000788
    26  H    0.000085  -0.000001   0.000000   0.000001   0.000143  -0.000068
    27  H   -0.000089   0.000002   0.000000  -0.000002  -0.000405  -0.000011
    28  O    0.000093  -0.000020   0.000004   0.000020  -0.000660  -0.000048
    29  O    0.000094  -0.000004   0.000001   0.000001  -0.000239  -0.000027
    30  H   -0.000026   0.000003  -0.000002  -0.000003   0.000200   0.000010
              7          8          9         10         11         12
     1  C    0.036907   0.009400  -0.004142  -0.021380  -0.000430  -0.001464
     2  H   -0.001001  -0.000146   0.000001   0.000859   0.000068  -0.000009
     3  H    0.000517   0.000102  -0.000085  -0.000177  -0.000011   0.000002
     4  H    0.001105   0.000199  -0.000068  -0.000774  -0.000020  -0.000053
     5  C   -0.027946  -0.009941   0.005930   0.014953  -0.000139  -0.000008
     6  H   -0.008321  -0.001436   0.000599   0.004216  -0.000049   0.000432
[...]
 23,0.00016041,-0.00018646,0.09948117,0.12991104,0.00094694,-0.00109392
 ,0.00089203,-0.00047749,-0.00007827,-0.00001815,0.00008126,0.00030741,
 0.00014452,-0.00036170,-0.00009128,0.00003332,-0.00549134,-0.00511257,
 -0.00207499,0.00021626,-0.00034809,0.00045119,-0.00093851,0.00031563,-
 0.00002706,0.00003939,0.00010025,0.00004605,0.00005524,-0.00000772,-0.
 00010422,-0.00014785,-0.00074574,0.00021791,0.00000003,0.00007659,-0.0
 0006524,0.00072596,0.00044548,0.00003751,0.00014676,0.00038691,-0.0000
 4282,-0.00001373,-0.00002542,0.00002002,-0.00015029,0.00005421,0.00009
 182,0.00004674,-0.00000418,0.00003762,0.00000345,0.00000535,-0.0000077
 6,-0.00000539,-0.00000346,-0.00002348,0.00000335,-0.00000254,0.0000048
 9,-0.00001978,-0.00000427,0.00000024,0.00000057,0.00000643,0.00000374,
 -0.07709574,-0.06353671,-0.10024406,0.01246146,0.00862299,0.01107955,0
 .09852225,0.06328429,0.11510292,-0.00001276,0.00001010,0.00003982,0.00
 001105,0.00000051,-0.00000444,-0.00000010,0.00000312,-0.00001498,-0.00
 004175,-0.00000453,0.00000760,0.00004322,0.00010126,-0.00007228,0.0000
 0560,0.00001243,-0.00000138,0.00014957,-0.00038779,0.00004369,-0.00009
 095,0.00005532,-0.00003921,-0.00003935,0.00000302,-0.00006667,-0.00072
 997,-0.00122140,-0.00073895,0.00005502,0.00013762,0.00013742,-0.000299
 89,-0.00058631,0.00025764,-0.00044202,-0.02824219,-0.00309251,0.000728
 38,-0.00020691,0.00036723,-0.00429621,-0.00240183,-0.00234075,-0.06033
 161,0.00149000,-0.02179590,0.00022173,0.00650294,-0.00005781,-0.002112
 30,0.02450453,0.00200512,0.00086791,-0.00080383,-0.00083296,0.00107309
 ,0.00087930,0.00022295,-0.00314142,0.00279849,0.00259925,0.00011038,-0
 .00008368,0.00014890,-0.00004546,0.00003351,-0.00000948,0.00001157,-0.
 00003596,-0.00002094,0.29897172,0.00007680,-0.00003453,-0.00007319,-0.
 00000944,-0.00000776,-0.00000052,-0.00000058,0.00000444,0.00000950,0.0
 0004558,0.00002005,0.00000694,0.00007971,0.00010063,0.00020394,-0.0000
 1025,-0.00001144,-0.00000118,0.00052962,-0.00030388,-0.00046177,-0.000
 10960,-0.00000780,-0.00002709,0.00004054,0.00004856,0.00003363,0.00048
 690,0.00081433,0.00077994,-0.00006872,-0.00024913,0.00014817,-0.000043
 52,-0.00016341,-0.00025598,-0.00703017,-0.01838737,-0.00674745,0.00142
 358,0.00132058,0.00132874,-0.00112337,0.00034269,-0.00001680,-0.003236
 66,-0.21396891,-0.00939642,0.00296034,-0.01955688,0.00063851,0.0146504
 2,-0.02186855,-0.00856320,-0.00181566,0.00126599,0.00108026,-0.0016609
 0,0.00071033,0.00076634,0.00079045,-0.00060946,-0.00057607,-0.00004901
 ,0.00016128,-0.00006990,0.00002167,-0.00003256,0.00001288,0.00000862,-
 0.00000079,-0.00000402,-0.00540136,0.52719433,-0.00000299,0.00000059,-
 0.00000247,0.00000268,0.00002483,0.00000378,0.00000006,-0.00001051,0.0
 0000206,0.00001124,-0.00000149,-0.00000392,-0.00002911,0.00008150,0.00
 000789,-0.00000250,-0.00000446,0.00000344,-0.00021121,0.00013212,0.000
 11231,0.00016345,0.00024433,0.00007477,0.00003817,-0.00002831,-0.00000
 592,0.00111792,-0.00032776,0.00016993,-0.00021011,-0.00002255,0.000082
 64,-0.00053422,0.00059859,0.00022232,-0.00079417,-0.01967033,-0.003531
 37,0.00063881,-0.00117856,0.00074503,-0.00334563,-0.00203972,-0.000978
 36,-0.02160008,-0.00775572,-0.07070697,-0.00087647,0.02803035,0.003329
 38,0.00217004,-0.01457805,-0.00131610,-0.00059050,-0.00082505,0.001186
 50,-0.00071735,0.00092494,0.00039455,0.00185539,-0.00218220,0.00001645
 ,-0.00011168,-0.00015022,-0.00002092,0.00001395,0.00003163,-0.00000658
 ,-0.00001688,0.00003799,0.00004029,0.27402526,-0.00186637,0.39181154,-
 0.00001412,0.00000978,0.00001226,0.00000491,0.00000569,0.00000093,0.00
 000440,-0.00000149,0.00000076,-0.00001273,-0.00000294,0.00000092,0.000
 01757,-0.00000564,-0.00001923,-0.00000203,-0.00000830,0.00001124,0.000
 01159,-0.00001605,0.00003760,-0.00002491,0.00000862,-0.00000176,0.0000
 2587,0.00000809,0.00001948,0.00010075,-0.00012177,-0.00008283,-0.00003
 089,-0.00012312,0.00006928,0.00009834,0.00006819,-0.00014406,0.0000783
 3,-0.00020693,-0.00047867,0.00008594,0.00014607,0.00021925,0.00003079,
 -0.00009678,0.00006924,0.00308188,0.00262943,0.00268791,0.00006281,-0.
 00006221,-0.00024324,0.00022729,-0.00064829,-0.00033371,-0.00003651,0.
 00011982,0.00006218,-0.00007959,-0.00000920,-0.00008949,0.00007135,-0.
 00017779,-0.00013794,-0.00004208,-0.00002446,-0.00004357,-0.00000983,-
 0.00000027,0.00000558,0.00001670,-0.00000085,-0.00000597,-0.13426161,-
 0.07833725,-0.13822266,0.13448639,-0.00003202,0.00001688,0.00003794,0.
 00000926,0.00000848,-0.00000099,0.00000257,-0.00000337,-0.00000619,-0.
 00002946,-0.00000819,0.00000071,-0.00001608,0.00001033,-0.00008731,0.0
 0000166,0.00000116,0.00000814,-0.00013519,0.00006373,0.00019944,0.0000
 6020,0.00007928,0.00002249,0.00000403,-0.00001808,-0.00001574,0.000310
 66,-0.00013993,-0.00036086,-0.00003017,0.00001512,0.00005394,-0.000178
 17,0.00011683,0.00015898,0.00235685,-0.00541109,0.00035319,0.00006715,
 0.00013383,-0.00026400,-0.00157599,-0.00068010,-0.00086590,-0.01893083
 ,-0.00570923,-0.01820718,-0.00004843,0.00119895,0.00064714,-0.00093108
 ,0.00026645,0.00025281,0.00009229,-0.00002625,-0.00002704,0.00072627,0
 .00000359,-0.00006989,0.00030381,-0.00003150,0.00013204,0.00000283,-0.
 00010623,0.00004255,-0.00002321,0.00002470,-0.00000430,0.00000366,-0.0
 0000134,-0.00000504,-0.07649390,-0.11244388,-0.08437479,0.08427738,0.1
 1323381,-0.00000861,0.00000907,0.00001337,0.00000446,-0.00000393,-0.00
 000114,0.00000193,0.00000177,-0.00000318,-0.00001725,-0.00000278,0.000
 00303,0.00001782,-0.00000150,-0.00003271,0.00000034,0.00000038,0.00000
 479,-0.00002824,0.00000946,0.00002506,-0.00000850,-0.00001143,-0.00000
 102,0.00000334,0.00001225,0.00000433,0.00015016,0.00005707,-0.00006499
 ,-0.00002040,-0.00004077,0.00002049,0.00012563,0.00001515,-0.00008260,
 0.00078980,-0.00020462,0.00112762,0.00022196,0.00012619,0.00034911,-0.
 00020714,-0.00005533,0.00023028,-0.00222574,0.00277778,0.00062326,0.00
 057784,-0.00084693,0.00098293,0.00003185,0.00068300,0.00027799,-0.0000
 7103,-0.00007217,-0.00002364,0.00040047,-0.00020535,0.00003721,0.00006
 025,0.00014762,0.00008221,0.00001595,0.00000007,0.00001155,-0.00001403
 ,-0.00000085,0.00000356,0.00000929,-0.00001438,-0.00001424,-0.13322949
 ,-0.08398383,-0.15954635,0.14364664,0.09116421,0.16309346,0.00000264,-
 0.00000149,-0.00000892,-0.00000203,0.00000776,0.00000167,-0.00000111,-
 0.00000395,0.00000223,0.00001180,0.00000022,-0.00000172,-0.00000502,0.
 00001029,0.00001190,0.00000061,0.00000068,-0.00000226,-0.00006390,0.00
 002283,-0.00002963,0.00001696,0.00005340,0.00000969,-0.00000568,-0.000
 01946,-0.00001348,0.00008815,-0.00011050,0.00011465,0.00001780,-0.0000
 0151,0.00000547,-0.00040934,-0.00035685,0.00014488,0.00037949,-0.00035
 547,0.00123019,0.00034090,0.00020317,0.00011575,-0.00001683,0.00015835
 ,0.00008272,0.00295019,-0.00115465,-0.00304457,0.00035279,-0.00103106,
 0.00148258,-0.00026685,-0.00099401,0.00044129,-0.00018543,0.00023543,0
 .00035025,0.00009581,0.00007272,-0.00002407,0.00025378,-0.00003576,0.0
 0009856,-0.00003354,-0.00004106,-0.00000937,0.00001179,0.00000743,-0.0
 0000361,-0.00000701,0.00001679,0.00002021,-0.09630718,0.07780835,-0.11
 284554,-0.00386672,0.01021182,-0.01017811,0.09658220,-0.00000524,-0.00
 000074,0.00000147,-0.00000132,0.00000367,0.00000237,-0.00000298,-0.000
 00129,-0.00000073,0.00000456,-0.00000261,-0.00000294,-0.00004336,-0.00
 001212,-0.00001209,0.00000671,0.00000322,-0.00001003,-0.00015104,0.000
 15428,0.00005462,0.00007428,0.00003926,0.00003060,-0.00004040,-0.00003
 294,-0.00002872,-0.00018724,-0.00033306,-0.00017693,0.00015564,0.00017
 439,-0.00012917,-0.00037367,0.00009774,0.00026951,0.00144725,0.0015776
 2,0.00155046,-0.00051949,-0.00000713,-0.00104141,0.00006616,0.00040795
 ,-0.00034295,0.01165627,-0.00955581,0.02027791,0.00061937,-0.00496638,
 -0.00067253,-0.00057233,-0.00102694,0.00063135,0.00028926,0.00012587,-
 0.00050184,0.00008237,-0.00001008,-0.00004778,0.00037650,-0.00007871,-
 0.00055165,-0.00000828,-0.00003497,0.00000562,0.00000916,0.00000676,-0
 .00000340,-0.00001178,0.00001498,0.00001392,0.07924510,-0.14417125,0.1
 0477145,-0.00743336,0.00930522,-0.00954972,-0.08476014,0.14829035,0.00
 001085,-0.00001072,-0.00000155,-0.00000153,-0.00001198,-0.00000373,-0.
 00000066,0.00000554,0.00000061,-0.00000294,0.00000421,0.00000165,0.000
 01017,0.00001446,-0.00000921,0.00000358,-0.00000414,0.00000123,0.00016
 864,-0.00017503,-0.00002513,-0.00007853,-0.00007717,-0.00005032,-0.000
 01778,0.00002451,-0.00000223,-0.00026107,0.00033568,0.00012680,0.00001
 823,-0.00006969,-0.00001341,0.00046950,-0.00002034,-0.00011293,-0.0001
 9835,-0.00037335,0.00097454,0.00029394,0.00030007,-0.00005248,0.000132
 08,-0.00000655,0.00000788,0.00203805,-0.00394198,0.00505330,-0.0003112
 6,-0.00009307,0.00022952,0.00008193,0.00052613,-0.00053262,0.00003285,
 0.00002604,-0.00015680,0.00011218,-0.00015435,-0.00003663,-0.00008159,
 0.00004287,-0.00010541,0.00005284,0.00009150,0.00002813,-0.00001040,-0
 .00001269,0.00000071,0.00000827,-0.00001604,-0.00003199,-0.11740627,0.
 10695351,-0.16209985,-0.00706894,0.01125640,-0.00710926,0.12204346,-0.
 11452778,0.16393347,-0.00017139,-0.00138495,0.00007893,0.00026353,0.00
 000842,0.00043050,0.00039049,-0.00015294,0.00086189,0.00011312,0.00012
 755,-0.00012521,-0.00259855,0.01033126,-0.01548258,-0.00001507,0.00364
 859,0.00079269,0.00122461,-0.00066658,-0.00166138,0.00015281,-0.000198
 48,0.00046684,-0.00044907,0.00013743,0.00075845,-0.00055068,-0.0000999
 9,0.00021302,0.00024217,-0.00020927,0.00014378,-0.00014423,0.00025485,
 -0.00016962,0.00011495,0.00005387,-0.00000720,-0.00003942,-0.00002958,
 0.00005701,-0.00005770,0.00005612,0.00002139,0.00002972,0.00002072,0.0
 0004232,0.00001561,-0.00000845,0.00000339,-0.00001179,-0.00001363,-0.0
 0003877,0.00000300,-0.00000283,0.00001656,-0.00003306,-0.00000406,-0.0
 0000185,0.00000331,0.00000893,0.00000348,-0.11302674,0.01373194,-0.031
 71650,0.00594363,-0.01564091,0.02297147,-0.01065928,0.01780663,-0.0274
 8373,-0.00006845,-0.00000344,0.00006259,-0.00000591,-0.00000045,-0.000
 02695,0.00004786,0.00002596,-0.00002429,0.29147191,0.00058336,0.001906
 89,-0.00022648,0.00027622,0.00027471,0.00051257,-0.00009926,-0.0006277
 9,0.00033876,-0.00050674,-0.00033157,0.00035869,0.01286815,-0.02134465
 ,0.03733193,0.00252667,-0.00831874,-0.00176963,-0.00181842,0.00166940,
 0.00111816,-0.00020038,0.00031438,-0.00038932,0.00025073,0.00052069,-0
 .00077451,-0.00013814,-0.00068464,-0.00003450,-0.00007042,0.00003960,-
 0.00009915,0.00010356,0.00029864,0.00006599,0.00009814,0.00032680,0.00
 014555,0.00000990,-0.00001645,-0.00003121,-0.00007364,0.00004084,0.000
 04652,-0.00002043,-0.00009417,-0.00011002,0.00000071,0.00002257,0.0000
 0190,0.00005661,0.00005538,0.00004421,-0.00000849,-0.00000725,-0.00001
 374,0.00005908,-0.00000231,-0.00000194,-0.00002445,0.00001550,0.000003
 97,0.04253548,-0.09432864,0.04850416,-0.00140674,-0.00405570,0.0109661
 3,-0.00178408,0.00778288,-0.00071454,0.00003886,-0.00004963,0.00003425
 ,0.00002715,0.00004061,0.00001608,0.00000039,-0.00000889,-0.00003623,0
 .01651951,0.19225193,-0.00118821,-0.00129464,-0.00016844,0.00036966,-0
 .00026181,0.00069258,0.00080404,0.00029983,0.00132004,0.00021147,0.000
 04912,0.00004126,-0.00187667,0.01121962,-0.00269008,-0.00018639,0.0002
 8254,0.00155543,0.00024060,0.00022216,-0.00001061,-0.00030976,0.000159
 30,0.00024369,-0.00038137,0.00004158,0.00045210,-0.00039467,-0.0002175
 7,0.00007987,0.00019387,-0.00015498,0.00012162,-0.00000390,0.00028387,
 -0.00024467,0.00011479,0.00006533,-0.00013029,-0.00008525,-0.00001493,
 0.00011897,-0.00003143,0.00003959,0.00006087,0.00002037,0.00002246,0.0
 0006442,0.00002870,-0.00001929,0.00001940,-0.00001540,-0.00001623,-0.0
 0004059,-0.00000325,-0.00000275,0.00002153,-0.00002755,-0.00000058,0.0
 0000234,0.00000268,0.00000356,0.00000183,-0.06936795,0.05211662,-0.122
 89799,-0.00196725,0.01247773,-0.02267122,-0.00914924,0.01701907,-0.029
 76696,-0.00008777,0.00004075,0.00003131,0.00002431,-0.00001883,-0.0000
 1272,0.00001657,-0.00000444,-0.00002386,0.00199402,-0.14919161,0.23787
 628,-0.00006980,-0.00007190,0.00000784,0.00013569,-0.00012395,0.000036
 69,-0.00017385,0.00001098,0.00010317,0.00014820,0.00019917,-0.00016539
 ,0.00152665,0.00063061,-0.00124990,-0.00016677,0.00018056,0.00002781,-
 0.00053548,-0.00040117,0.00027928,0.00031207,0.00002465,-0.00027608,-0
 .00027265,0.00071795,-0.00048579,-0.00020458,-0.00056537,-0.00077794,-
 0.00010971,0.00039579,-0.00003088,0.00027238,0.00045538,0.00044678,0.0
 0012409,0.00009374,0.00011522,0.00004127,-0.00005106,-0.00007926,-0.00
 008353,0.00009453,0.00003713,0.00002117,-0.00002470,-0.00004253,-0.000
 01305,0.00004006,-0.00002352,0.00003204,0.00002565,-0.00001146,0.00000
 631,-0.00000950,-0.00000116,-0.00000868,-0.00001230,-0.00000821,-0.000
 01481,0.00003587,0.00001177,0.00490772,0.00113868,0.00990409,0.0040039
 6,-0.00097205,-0.00167163,0.00313021,0.00063543,-0.00067092,-0.0000068
 7,-0.00010547,0.00016431,-0.00002294,0.00004433,-0.00005106,0.00008463
 ,0.00005325,-0.00010187,-0.16525957,-0.02585755,0.06747038,0.20710427,
 0.00006793,-0.00004371,0.00015670,0.00011626,-0.00009004,-0.00003422,-
 0.00018969,-0.00012193,0.00003662,0.00014229,0.00017624,-0.00014094,-0
 .00067855,0.00002351,0.00064120,0.00031479,-0.00000469,-0.00028755,0.0
 0113853,-0.00187036,-0.00131151,0.00024325,-0.00055105,0.00060148,0.00
 103411,-0.00222220,0.00117129,0.00013152,-0.00018915,-0.00017893,0.000
 03360,-0.00001970,0.00003744,-0.00032293,-0.00038465,-0.00001386,-0.00
 007197,-0.00015665,0.00024192,0.00003824,-0.00000384,-0.00011828,0.000
 04079,0.00003611,-0.00007588,-0.00006212,-0.00006155,-0.00012496,-0.00
 001959,0.00005006,-0.00001642,0.00005847,0.00005320,0.00004753,0.00000
 261,-0.00000833,-0.00002079,0.00004322,-0.00000464,-0.00000640,-0.0000
 2374,0.00002785,0.00000508,-0.02930940,-0.00701915,0.01312194,0.002228
 12,-0.00311301,0.00218778,0.00193848,0.00131493,-0.00174545,0.00008351
 ,-0.00012369,0.00009942,-0.00001744,0.00006742,-0.00001600,0.00003961,
 0.00002674,-0.00005008,-0.04568501,-0.07034934,0.05544891,-0.06931445,
 0.56979288,-0.00019774,0.00031479,-0.00056054,0.00003858,0.00012082,0.
 00021746,0.00003626,-0.00003603,0.00021046,-0.00012571,-0.00012366,-0.
 00002246,-0.00148971,-0.00121732,0.00252606,0.00019124,-0.00066236,0.0
 0011096,-0.00004832,0.00122060,-0.00010522,-0.00030247,0.00025484,0.00
 020674,0.00007490,-0.00040401,0.00011643,-0.00025168,-0.00053459,-0.00
 019405,-0.00004647,0.00021784,0.00003306,0.00030075,0.00042769,0.00006
 705,0.00008214,0.00030066,-0.00025864,-0.00006432,-0.00005725,0.000110
 67,-0.00010969,0.00002790,0.00009422,0.00002341,-0.00000771,0.00010023
 ,0.00002728,-0.00000997,0.00001673,-0.00001509,-0.00000086,-0.00006530
 ,-0.00000539,-0.00000798,0.00002774,-0.00003330,-0.00000790,0.00000602
 ,-0.00000087,0.00000916,0.00000597,0.03777733,0.00907918,-0.02674310,-
 0.00340680,0.00666461,-0.00485908,0.00207333,-0.00161800,0.00471150,-0
 .00013059,0.00005030,0.00007089,0.00002858,-0.00002357,-0.00001568,0.0
 0003932,0.00000130,-0.00006891,0.04933742,0.03015973,-0.05846802,-0.09
 874268,-0.04127653,0.09317354,0.00010912,-0.00005756,0.00002910,-0.000
 00728,-0.00003817,-0.00001371,-0.00003914,0.00001470,0.00001668,0.0000
 3977,0.00004428,-0.00001411,-0.00046435,-0.00036881,0.00061082,0.00014
 977,-0.00010197,-0.00012255,0.00003708,0.00009820,0.00039084,-0.000068
 82,0.00016185,-0.00025062,0.00013116,-0.00017632,-0.00049695,0.0001667
 6,0.00031903,0.00007728,-0.00008307,-0.00002640,-0.00004734,0.00010331
 ,0.00000668,0.00005206,0.00000690,-0.00002560,-0.00007469,0.00002989,0
 .00002754,0.00001854,0.00000824,-0.00004852,0.00000058,0.00005152,0.00
 006754,0.00006165,-0.00000334,-0.00004813,0.00000538,-0.00004459,-0.00
 004642,-0.00000457,-0.00000036,0.00001328,0.00000345,-0.00001448,0.000
 00992,0.00000548,0.00002045,-0.00003506,-0.00000916,-0.00528033,-0.000
 64991,-0.00069542,0.00043878,-0.00053785,0.00057492,0.00055400,0.00063
 983,-0.00038649,-0.00002134,0.00008279,-0.00015279,0.00000495,-0.00004
 978,0.00002882,-0.00006675,-0.00000121,0.00008891,-0.00692582,-0.04394
 580,0.01358461,-0.05490839,0.13799957,0.01494029,0.06607637,-0.0001050
 4,0.00002460,0.00006228,-0.00000002,0.00009290,-0.00000103,0.00001213,
 -0.00007384,-0.00003467,-0.00002806,-0.00003754,-0.00000784,-0.0002054
 6,0.00010061,-0.00034338,-0.00007570,0.00019984,0.00002842,0.00021209,
 0.00001983,-0.00076507,-0.00003976,-0.00001582,0.00024007,0.00015908,-
 0.00035386,0.00047027,-0.00014412,-0.00008493,-0.00002156,0.00001813,0
 .00002974,0.00002846,0.00006827,0.00007540,0.00001576,0.00002073,0.000
 03217,-0.00005078,-0.00001416,-0.00000389,0.00002213,-0.00002399,0.000
 00382,0.00001553,0.00002021,0.00001793,0.00003097,0.00000413,-0.000009
 97,0.00000133,-0.00001139,-0.00001245,-0.00001494,0.00000240,0.0000030
 9,0.00000650,-0.00001761,0.00000082,-0.00000091,0.00000546,-0.00000500
 ,0.00000019,-0.00027117,-0.00178568,0.00129821,0.00000003,0.00028820,-
 0.00042869,-0.00034080,-0.00017189,-0.00009621,-0.00002993,0.00000772,
 0.00000411,-0.00000609,-0.00000719,-0.00001052,0.00001668,0.00001485,0
 .00000028,0.00136880,-0.00534103,0.00140563,0.09273285,-0.48523125,-0.
 00286166,-0.09332772,0.49222281,0.00007561,-0.00014097,0.00002541,-0.0
 0003193,-0.00003530,-0.00004870,0.00003380,0.00002564,-0.00002622,-0.0
 0003719,-0.00001098,0.00002537,-0.00005682,0.00001010,-0.00059354,-0.0
 0010925,0.00008907,0.00010299,0.00008694,-0.00035428,-0.00017330,0.000
 07840,-0.00016066,0.00011599,-0.00025644,0.00033000,0.00025416,-0.0000
 3593,0.00023674,0.00007113,0.00004478,-0.00002810,0.00002326,-0.000043
 14,-0.00000457,0.00000145,-0.00004708,-0.00005393,0.00008755,0.0000076
 8,0.00001765,-0.00002875,0.00002569,-0.00002664,-0.00003047,0.00000301
 ,0.00001757,-0.00002536,-0.00000940,-0.00000276,-0.00000606,-0.0000101
 6,-0.00001548,0.00003857,0.00000242,0.00000596,-0.00001763,0.00001287,
 0.00000598,-0.00000192,0.00000821,-0.00001520,-0.00000775,0.00477183,0
 .00300734,-0.00101504,-0.00016855,0.00062573,-0.00086403,-0.00040579,0
 .00011962,-0.00049414,0.00008751,-0.00000959,-0.00008630,-0.00002409,0
 .00000167,0.00001727,-0.00005010,-0.00000647,0.00007848,-0.00151769,0.
 02374429,-0.00557809,0.02578580,-0.02837954,-0.01044473,-0.02822101,0.
 00100712,0.01860037\\-0.00000054,0.00000183,-0.00000132,-0.00000098,0.
 00000183,-0.00000410,-0.00000100,0.00000385,-0.00000050,-0.00000010,0.
 00000053,-0.00000085,-0.00000151,-0.00000157,-0.00000215,0.00000037,-0
 .00000308,-0.00000197,0.00000068,0.00000150,-0.00000085,-0.00000074,0.
 00000147,-0.00000344,-0.00000117,0.00000289,0.00000010,-0.00000028,-0.
 00000127,-0.00000105,0.00000070,-0.00000319,-0.00000188,0.00000097,-0.
 00000087,0.00000232,-0.00000005,0.00000085,-0.00000232,-0.00000094,0.0
 0000283,-0.00000088,-0.00000077,0.00000085,-0.00000463,0.00000072,-0.0
 0000029,-0.00000246,0.00000041,-0.00000398,-0.00000223,-0.00000046,0.0
 0000002,-0.00000276,-0.00000092,0.00000236,-0.00000254,-0.00000001,-0.
 00000148,-0.00000323,-0.00000075,0.00000001,-0.00000590,0.00000310,0.0
 0000237,0.00000179,0.00000140,-0.00000177,0.00000470,0.00000219,-0.000
 00293,0.00000427,-0.00000104,-0.00000242,0.00000201,0.00000196,-0.0000
 0434,0.00000172,0.00000092,-0.00000013,0.00000495,-0.00000316,-0.00000
 081,0.00000623,0.00000086,0.00000226,0.00000806,0.00000013,0.00000268,
 0.00000892\\\@


 OLD HORSE! OLD HORSE! WHAT BROUGHT YOU HERE?
 FROM SACARAP' TO PORTLAND PIER
 I'VE CARTED STONE THIS MANY A YEAR;
 TILL, KILLED BY BLOWS AND SORE ABUSE,
 THEY SALTED ME DOWN FOR SAILORS' USE.
 THE SAILORS THEY DO ME DESPISE;
 THEY TURN ME OVER AND DAMN MY EYES;
 CUT OFF MY MEAT, AND SCRAPE MY BONES,
 AND PITCH ME OVER TO DAVY JONES.

    SAILORS' COMPLAINT ABOUT THE BEEF
    SERVED ON SHIPBOARD, CIRCA 1835.
 Job cpu time:  0 days  5 hours 52 minutes  5.5 seconds.
 File lengths (MBytes):  RWF=    713 Int=      0 D2E=      0 Chk=     20 Scr=      1
 Normal termination of Gaussian 09 at Fri Feb  7 03:03:49 2014.
