 Entering Gaussian System, Link 0=g09
 Initial command:
 /usr/caen/gaussian-09revc/g09/l1.exe /scratch/avioli_flux/hetanjin/scratch/Gau-65967.inp -scrdir=/scratch/avioli_flux/hetanjin/scratch/
 Entering Link 1 = /usr/caen/gaussian-09revc/g09/l1.exe PID=     65968.
  
 Copyright (c) 1988,1990,1992,1993,1995,1998,2003,2009,2011,
            Gaussian, Inc.  All Rights Reserved.
  
 This is part of the Gaussian(R) 09 program.  It is based on
 the Gaussian(R) 03 system (copyright 2003, Gaussian, Inc.),
 the Gaussian(R) 98 system (copyright 1998, Gaussian, Inc.),
 the Gaussian(R) 94 system (copyright 1995, Gaussian, Inc.),
 the Gaussian 92(TM) system (copyright 1992, Gaussian, Inc.),
 the Gaussian 90(TM) system (copyright 1990, Gaussian, Inc.),
 the Gaussian 88(TM) system (copyright 1988, Gaussian, Inc.),
 the Gaussian 86(TM) system (copyright 1986, Carnegie Mellon
 University), and the Gaussian 82(TM) system (copyright 1983,
 Carnegie Mellon University). Gaussian is a federally registered
 trademark of Gaussian, Inc.
  
 This software contains proprietary and confidential information,
 including trade secrets, belonging to Gaussian, Inc.
  
 This software is provided under written license and may be
 used, copied, transmitted, or stored only in accord with that
 written license.
  
 The following legend is applicable only to US Government
 contracts under FAR:
  
                    RESTRICTED RIGHTS LEGEND
  
 Use, reproduction and disclosure by the US Government is
 subject to restrictions as set forth in subparagraphs (a)
 and (c) of the Commercial Computer Software - Restricted
 Rights clause in FAR 52.227-19.
  
 Gaussian, Inc.
 340 Quinnipiac St., Bldg. 40, Wallingford CT 06492
  
  
 ---------------------------------------------------------------
 Warning -- This program may not be used in any manner that
 competes with the business of Gaussian, Inc. or will provide
 assistance to any competitor of Gaussian, Inc.  The licensee
 of this program is prohibited from giving any competitor of
 Gaussian, Inc. access to this program.  By using this program,
 the user acknowledges that Gaussian, Inc. is engaged in the
 business of creating and licensing software in the field of
 computational chemistry and represents and warrants to the
 licensee that it is not a competitor of Gaussian, Inc. and that
 it will not use this program in any manner prohibited above.
 ---------------------------------------------------------------
  

 Cite this work as:
 Gaussian 09, Revision C.01,
 M. J. Frisch, G. W. Trucks, H. B. Schlegel, G. E. Scuseria, 
 M. A. Robb, J. R. Cheeseman, G. Scalmani, V. Barone, B. Mennucci, 
 G. A. Petersson, H. Nakatsuji, M. Caricato, X. Li, H. P. Hratchian, 
 A. F. Izmaylov, J. Bloino, G. Zheng, J. L. Sonnenberg, M. Hada, 
 M. Ehara, K. Toyota, R. Fukuda, J. Hasegawa, M. Ishida, T. Nakajima, 
 Y. Honda, O. Kitao, H. Nakai, T. Vreven, J. A. Montgomery, Jr., 
 J. E. Peralta, F. Ogliaro, M. Bearpark, J. J. Heyd, E. Brothers, 
 K. N. Kudin, V. N. Staroverov, T. Keith, R. Kobayashi, J. Normand, 
 K. Raghavachari, A. Rendell, J. C. Burant, S. S. Iyengar, J. Tomasi, 
 M. Cossi, N. Rega, J. M. Millam, M. Klene, J. E. Knox, J. B. Cross, 
 V. Bakken, C. Adamo, J. Jaramillo, R. Gomperts, R. E. Stratmann, 
 O. Yazyev, A. J. Austin, R. Cammi, C. Pomelli, J. W. Ochterski, 
 R. L. Martin, K. Morokuma, V. G. Zakrzewski, G. A. Voth, 
 P. Salvador, J. J. Dannenberg, S. Dapprich, A. D. Daniels, 
 O. Farkas, J. B. Foresman, J. V. Ortiz, J. Cioslowski, 
 and D. J. Fox, Gaussian, Inc., Wallingford CT, 2010.
 
 ******************************************
 Gaussian 09:  EM64L-G09RevC.01 23-Sep-2011
                 7-Feb-2014 
 ******************************************
 %mem=30GB
 %nprocshared=8
 Will use up to    8 processors via shared memory.
 %chk=HO2.chk
 --------------------------------------------------
 #p stable=(opt,xqc) ub3lyp/6-311++g(d,p) guess=mix
 --------------------------------------------------
 1/38=1/1;
 2/12=2,17=6,18=5,40=1/2;
 3/5=4,6=6,7=1111,11=2,16=1,25=1,30=1,74=-5,116=2/1,2,3;
 4/13=-1/1;
 5/5=2,38=5/2;
 6/7=2,8=2,9=2,10=2,28=1/1;
 8/6=1,10=90,11=11/1;
 9/8=-3,42=1,46=1/14;
 5/5=2,8=3,13=1,17=40,38=5/2,8(-2);
 6/7=2,8=2,9=2,10=2,28=1/1;
 99/5=1,9=1/99;
 Leave Link    1 at Fri Feb  7 01:52:16 2014, MaxMem= 4026531840 cpu:       0.5
 (Enter /usr/caen/gaussian-09revc/g09/l101.exe)
 -----------------------------------------------------
 HO2 using B3LYP/6-311++g(d,p) to do opt and cal. freq
 -----------------------------------------------------
 Charge =  0 Multiplicity = 2
 Symbolic Z-Matrix:
 O                     0.18674  -0.70276   1.76932 
 H                    -0.13371   0.20217   1.76932 
 O                     1.50674  -0.70276   1.76932 
 
 NAtoms=      3 NQM=        0 NQMF=       0 NMMI=      3 NMMIF=      0
                NMic=       0 NMicF=      0.
                    Isotopes and Nuclear Properties:
 (Nuclear quadrupole moments (NQMom) in fm**2, nuclear magnetic moments (NMagM)
  in nuclear magnetons)

  Atom         1           2           3
 IAtWgt=          16           1          16
 AtmWgt=  15.9949146   1.0078250  15.9949146
 NucSpn=           0           1           0
 AtZEff=   0.0000000   0.0000000   0.0000000
 NQMom=    0.0000000   0.0000000   0.0000000
 NMagM=    0.0000000   2.7928460   0.0000000
 Leave Link  101 at Fri Feb  7 01:52:16 2014, MaxMem= 4026531840 cpu:       0.3
 (Enter /usr/caen/gaussian-09revc/g09/l202.exe)
                          Input orientation:                          
 ---------------------------------------------------------------------
 Center     Atomic      Atomic             Coordinates (Angstroms)
 Number     Number       Type             X           Y           Z
 ---------------------------------------------------------------------
      1          8           0        0.186744   -0.702761    1.769322
      2          1           0       -0.133711    0.202175    1.769322
      3          8           0        1.506744   -0.702761    1.769322
 ---------------------------------------------------------------------
                    Distance matrix (angstroms):
                    1          2          3
     1  O    0.000000
     2  H    0.960000   0.000000
     3  O    1.320000   1.873499   0.000000
 Stoichiometry    HO2(2)
 Framework group  CS[SG(HO2)]
 Deg. of freedom     3
 Full point group                 CS      NOp   2
 Largest Abelian subgroup         CS      NOp   2
 Largest concise Abelian subgroup C1      NOp   1
                         Standard orientation:                         
 ---------------------------------------------------------------------
 Center     Atomic      Atomic             Coordinates (Angstroms)
 Number     Number       Type             X           Y           Z
 ---------------------------------------------------------------------
      1          8           0        0.053232   -0.602326    0.000000
      2          1           0       -0.851704   -0.922781    0.000000
      3          8           0        0.053232    0.717674    0.000000
 ---------------------------------------------------------------------
 Rotational constants (GHZ):    676.6215544     33.8562775     32.2429301
 Leave Link  202 at Fri Feb  7 01:52:16 2014, MaxMem= 4026531840 cpu:       0.1
 (Enter /usr/caen/gaussian-09revc/g09/l301.exe)
 Standard basis: 6-311++G(d,p) (5D, 7F)
 Ernie: Thresh=  0.10000D-02 Tol=  0.10000D-05 Strict=F.
 There are    38 symmetry adapted basis functions of A'  symmetry.
 There are    13 symmetry adapted basis functions of A"  symmetry.
 Integral buffers will be    131072 words long.
 Raffenetti 2 integral format.
 Two-electron integral symmetry is turned on.
    51 basis functions,    81 primitive gaussians,    53 cartesian basis functions
     9 alpha electrons        8 beta electrons
       nuclear repulsion energy        32.3265179973 Hartrees.
 IExCor=  402 DFT=T Ex+Corr=B3LYP ExCW=0 ScaHFX=  0.200000
 ScaDFX=  0.800000  0.720000  1.000000  0.810000 ScalE2=  1.000000  1.000000
 IRadAn=      0 IRanWt=     -1 IRanGd=            0 ICorTp=0
 NAtoms=    3 NActive=    3 NUniq=    3 SFac= 1.00D+00 NAtFMM=   60 NAOKFM=F Big=F
 Leave Link  301 at Fri Feb  7 01:52:16 2014, MaxMem= 4026531840 cpu:       0.4
 (Enter /usr/caen/gaussian-09revc/g09/l302.exe)
 NPDir=0 NMtPBC=     1 NCelOv=     1 NCel=       1 NClECP=     1 NCelD=      1
         NCelK=      1 NCelE2=     1 NClLst=     1 CellRange=     0.0.
 One-electron integrals computed using PRISM.
 NBasis=    51 RedAO= T  NBF=    38    13
 NBsUse=    51 1.00D-06 NBFU=    38    13
 Precomputing XC quadrature grid using
 IXCGrd= 2 IRadAn=           0 IRanWt=          -1 IRanGd=           0 AccXCQ= 0.00D+00.
 NRdTot=     194 NPtTot=       24552 NUsed=       25962 NTot=       25994
 NSgBfM=    53    53    53    53    53 NAtAll=     3     3.
 Leave Link  302 at Fri Feb  7 01:52:16 2014, MaxMem= 4026531840 cpu:       1.0
 (Enter /usr/caen/gaussian-09revc/g09/l303.exe)
 DipDrv:  MaxL=1.
 Leave Link  303 at Fri Feb  7 01:52:16 2014, MaxMem= 4026531840 cpu:       0.2
 (Enter /usr/caen/gaussian-09revc/g09/l401.exe)
 Harris functional with IExCor=  402 diagonalized for initial guess.
 ExpMin= 3.60D-02 ExpMax= 8.59D+03 ExpMxC= 1.30D+03 IAcc=3 IRadAn=         5 AccDes= 0.00D+00
 HarFok:  IExCor=  402 AccDes= 0.00D+00 IRadAn=         5 IDoV= 1
 ScaDFX=  1.000000  1.000000  1.000000  1.000000
 FoFCou: FMM=F IPFlag=           0 FMFlag=      100000 FMFlg1=           0
         NFxFlg=           0 DoJE=T BraDBF=F KetDBF=T FulRan=T
         Omega=  0.000000  0.000000  1.000000  0.000000  0.000000 ICntrl=     500 IOpCl=  0
         NMat0=    1 NMatS0=    1 NMatT0=    0 NMatD0=    1 NMtDS0=    0 NMtDT0=    0
         I1Cent=           4 NGrid=           0.
 Petite list used in FoFCou.
 Harris En= -150.939227500373    
 Mixing orbitals, IMix= 1 IMixAn=  0 NRI=1 NE=    9 Coef=  7.07106781D-01  7.07106781D-01
 Mixing orbitals, IMix= 1 IMixAn=  0 NRI=1 NE=    8 Coef= -7.07106781D-01  7.07106781D-01
 Initial guess orbital symmetries:
 Alpha Orbitals:
       Occupied  (A') (A') (A') (A') (A') (A') (A") (A') (?A)
       Virtual   (?A) (A') (A') (A") (A') (A') (A') (A') (A") (A')
                 (A') (A') (A') (A") (A') (A') (A") (A') (A') (A")
                 (A') (A') (A') (A") (A') (A') (A') (A") (A') (A")
                 (A") (A') (A') (A') (A') (A") (A') (A") (A') (A')
                 (A') (A')
 Beta  Orbitals:
       Occupied  (A') (A') (A') (A') (A') (A') (A") (?A)
       Virtual   (?A) (A') (A') (A') (A") (A') (A') (A') (A') (A")
                 (A') (A') (A') (A') (A") (A') (A') (A") (A') (A')
                 (A") (A') (A') (A') (A") (A') (A') (A') (A") (A')
                 (A") (A") (A') (A') (A') (A') (A") (A') (A") (A')
                 (A') (A') (A')
 Initial guess <Sx>= 0.0000 <Sy>= 0.0000 <Sz>= 0.5000 <S**2>= 1.0000 S= 0.6180
 Leave Link  401 at Fri Feb  7 01:52:17 2014, MaxMem= 4026531840 cpu:       1.2
 (Enter /usr/caen/gaussian-09revc/g09/l502.exe)
 UHF open shell SCF:
 Requested convergence on RMS density matrix=1.00D-08 within 128 cycles.
 Requested convergence on MAX density matrix=1.00D-06.
 Requested convergence on             energy=1.00D-06.
 No special actions if energy rises.
 Using DIIS extrapolation, IDIIS=  1040.
 Integral symmetry usage will be decided dynamically.
        25922 words used for storage of precomputed grid.
 Keep R1 and R2 ints in memory in canonical form, NReq=2974257.
 IEnd=       53328 IEndB=       53328 NGot=  4026531840 MDV=  4024448795
 LenX=  4024448795 LenY=  4024445545
 Symmetry not used in FoFDir.
 MinBra= 0 MaxBra= 2 Meth= 1.
 IRaf=       0 NMat=   1 IRICut=       1 DoRegI=T DoRafI=F ISym2E= 0 JSym2E=0.
 An orbital has undefined symmetry, so N**3 symmetry is turned off.

 Cycle   1  Pass 1  IDiag  1:
 Density matrix breaks symmetry, PCut= 1.00D-04
 Density has only Abelian symmetry.
 E= -150.807050553132    
 DIIS: error= 3.09D-02 at cycle   1 NSaved=   1.
 NSaved= 1 IEnMin= 1 EnMin= -150.807050553132     IErMin= 1 ErrMin= 3.09D-02
 ErrMax= 3.09D-02 EMaxC= 1.00D-01 BMatC= 1.48D-01 BMatP= 1.48D-01
 IDIUse=3 WtCom= 6.91D-01 WtEn= 3.09D-01
 Coeff-Com:  0.100D+01
 Coeff-En:   0.100D+01
 Coeff:      0.100D+01
 Gap=     0.049 Goal=   None    Shift=    0.000
 Gap=     0.114 Goal=   None    Shift=    0.000
 GapD=    0.049 DampG=0.250 DampE=0.500 DampFc=0.2500 IDamp=-1.
 Damping current iteration by 2.50D-01
 RMSDP=2.08D-02 MaxDP=4.69D-01              OVMax= 6.24D-01

 Cycle   2  Pass 1  IDiag  1:
 Density matrix breaks symmetry, PCut= 1.00D-04
 Density has only Abelian symmetry.
 E= -150.838910551683     Delta-E=       -0.031859998551 Rises=F Damp=T
 DIIS: error= 2.16D-02 at cycle   2 NSaved=   2.
 NSaved= 2 IEnMin= 2 EnMin= -150.838910551683     IErMin= 2 ErrMin= 2.16D-02
 ErrMax= 2.16D-02 EMaxC= 1.00D-01 BMatC= 5.63D-02 BMatP= 1.48D-01
 IDIUse=3 WtCom= 7.84D-01 WtEn= 2.16D-01
 Coeff-Com: -0.560D+00 0.156D+01
 Coeff-En:   0.000D+00 0.100D+01
 Coeff:     -0.439D+00 0.144D+01
 Gap=     0.246 Goal=   None    Shift=    0.000
 Gap=     0.120 Goal=   None    Shift=    0.000
 RMSDP=1.57D-02 MaxDP=3.52D-01 DE=-3.19D-02 OVMax= 1.31D-01

 Cycle   3  Pass 1  IDiag  1:
 Density matrix breaks symmetry, PCut= 1.00D-04
 Density has only Abelian symmetry.
 E= -150.936842587621     Delta-E=       -0.097932035938 Rises=F Damp=F
 DIIS: error= 1.30D-02 at cycle   3 NSaved=   3.
 NSaved= 3 IEnMin= 3 EnMin= -150.936842587621     IErMin= 3 ErrMin= 1.30D-02
 ErrMax= 1.30D-02 EMaxC= 1.00D-01 BMatC= 2.53D-02 BMatP= 5.63D-02
 IDIUse=3 WtCom= 8.70D-01 WtEn= 1.30D-01
 Coeff-Com: -0.182D+00 0.557D+00 0.626D+00
 Coeff-En:   0.000D+00 0.000D+00 0.100D+01
 Coeff:     -0.159D+00 0.484D+00 0.674D+00
 Gap=     0.241 Goal=   None    Shift=    0.000
 Gap=     0.123 Goal=   None    Shift=    0.000
 RMSDP=2.22D-03 MaxDP=2.17D-02 DE=-9.79D-02 OVMax= 1.12D-01

 Cycle   4  Pass 1  IDiag  1:
 Density matrix breaks symmetry, PCut= 1.00D-04
 Density has only Abelian symmetry.
 E= -150.942443410435     Delta-E=       -0.005600822815 Rises=F Damp=F
 DIIS: error= 1.34D-02 at cycle   4 NSaved=   4.
 NSaved= 4 IEnMin= 4 EnMin= -150.942443410435     IErMin= 3 ErrMin= 1.30D-02
 ErrMax= 1.34D-02 EMaxC= 1.00D-01 BMatC= 2.30D-02 BMatP= 2.53D-02
 IDIUse=3 WtCom= 8.66D-01 WtEn= 1.34D-01
 Coeff-Com:  0.123D+00-0.112D+00 0.471D+00 0.519D+00
 Coeff-En:   0.000D+00 0.000D+00 0.134D+00 0.866D+00
 Coeff:      0.106D+00-0.974D-01 0.426D+00 0.566D+00
 Gap=     0.261 Goal=   None    Shift=    0.000
 Gap=     0.130 Goal=   None    Shift=    0.000
 RMSDP=1.20D-03 MaxDP=1.67D-02 DE=-5.60D-03 OVMax= 5.93D-02

 Cycle   5  Pass 1  IDiag  1:
 Density matrix breaks symmetry, PCut= 1.00D-04
 Density has only Abelian symmetry.
 E= -150.948440071284     Delta-E=       -0.005996660849 Rises=F Damp=F
 DIIS: error= 4.95D-03 at cycle   5 NSaved=   5.
 NSaved= 5 IEnMin= 5 EnMin= -150.948440071284     IErMin= 5 ErrMin= 4.95D-03
 ErrMax= 4.95D-03 EMaxC= 1.00D-01 BMatC= 2.40D-03 BMatP= 2.30D-02
 IDIUse=3 WtCom= 9.51D-01 WtEn= 4.95D-02
 Coeff-Com: -0.652D-01 0.897D-01-0.101D+00 0.116D+00 0.960D+00
 Coeff-En:   0.000D+00 0.000D+00 0.000D+00 0.000D+00 0.100D+01
 Coeff:     -0.620D-01 0.853D-01-0.957D-01 0.111D+00 0.962D+00
 Gap=     0.269 Goal=   None    Shift=    0.000
 Gap=     0.138 Goal=   None    Shift=    0.000
 RMSDP=1.28D-03 MaxDP=1.60D-02 DE=-6.00D-03 OVMax= 1.04D-01

 Cycle   6  Pass 1  IDiag  1:
 Density matrix breaks symmetry, PCut= 1.00D-04
 Density has only Abelian symmetry.
 E= -150.951714441623     Delta-E=       -0.003274370339 Rises=F Damp=F
 DIIS: error= 4.01D-03 at cycle   6 NSaved=   6.
 NSaved= 6 IEnMin= 6 EnMin= -150.951714441623     IErMin= 6 ErrMin= 4.01D-03
 ErrMax= 4.01D-03 EMaxC= 1.00D-01 BMatC= 8.04D-04 BMatP= 2.40D-03
 IDIUse=3 WtCom= 9.60D-01 WtEn= 4.01D-02
 Coeff-Com:  0.726D-01-0.632D-01 0.487D-01-0.185D+00-0.509D+00 0.164D+01
 Coeff-En:   0.000D+00 0.000D+00 0.000D+00 0.000D+00 0.000D+00 0.100D+01
 Coeff:      0.697D-01-0.607D-01 0.468D-01-0.177D+00-0.489D+00 0.161D+01
 Gap=     0.275 Goal=   None    Shift=    0.000
 Gap=     0.146 Goal=   None    Shift=    0.000
 RMSDP=1.53D-03 MaxDP=1.76D-02 DE=-3.27D-03 OVMax= 1.29D-01

 Cycle   7  Pass 1  IDiag  1:
 Density matrix breaks symmetry, PCut= 1.00D-04
 Density has only Abelian symmetry.
 E= -150.954693306635     Delta-E=       -0.002978865012 Rises=F Damp=F
 DIIS: error= 2.88D-03 at cycle   7 NSaved=   7.
 NSaved= 7 IEnMin= 7 EnMin= -150.954693306635     IErMin= 7 ErrMin= 2.88D-03
 ErrMax= 2.88D-03 EMaxC= 1.00D-01 BMatC= 3.53D-04 BMatP= 8.04D-04
 IDIUse=3 WtCom= 9.71D-01 WtEn= 2.88D-02
 Coeff-Com:  0.317D-01-0.470D-01 0.154D-01 0.135D+00 0.469D-01-0.127D+01
 Coeff-Com:  0.208D+01
 Coeff-En:   0.000D+00 0.000D+00 0.000D+00 0.000D+00 0.000D+00 0.000D+00
 Coeff-En:   0.100D+01
 Coeff:      0.308D-01-0.457D-01 0.150D-01 0.131D+00 0.455D-01-0.123D+01
 Coeff:      0.205D+01
 Gap=     0.282 Goal=   None    Shift=    0.000
 Gap=     0.153 Goal=   None    Shift=    0.000
 RMSDP=1.65D-03 MaxDP=2.34D-02 DE=-2.98D-03 OVMax= 1.40D-01

 Cycle   8  Pass 1  IDiag  1:
 Density matrix breaks symmetry, PCut= 1.00D-04
 Density has only Abelian symmetry.
 E= -150.956696872798     Delta-E=       -0.002003566162 Rises=F Damp=F
 DIIS: error= 1.43D-03 at cycle   8 NSaved=   8.
 NSaved= 8 IEnMin= 8 EnMin= -150.956696872798     IErMin= 8 ErrMin= 1.43D-03
 ErrMax= 1.43D-03 EMaxC= 1.00D-01 BMatC= 1.22D-04 BMatP= 3.53D-04
 IDIUse=3 WtCom= 9.86D-01 WtEn= 1.43D-02
 Coeff-Com: -0.447D-01 0.724D-01-0.171D-02 0.369D-01 0.710D-01-0.297D+00
 Coeff-Com: -0.839D-01 0.125D+01
 Coeff-En:   0.000D+00 0.000D+00 0.000D+00 0.000D+00 0.000D+00 0.000D+00
 Coeff-En:   0.000D+00 0.100D+01
 Coeff:     -0.441D-01 0.714D-01-0.169D-02 0.364D-01 0.700D-01-0.293D+00
 Coeff:     -0.827D-01 0.124D+01
 Gap=     0.285 Goal=   None    Shift=    0.000
 Gap=     0.155 Goal=   None    Shift=    0.000
 RMSDP=6.80D-04 MaxDP=1.05D-02 DE=-2.00D-03 OVMax= 5.75D-02

 Cycle   9  Pass 1  IDiag  1:
 Density matrix breaks symmetry, PCut= 1.00D-04
 Density has only Abelian symmetry.
 E= -150.957131610803     Delta-E=       -0.000434738005 Rises=F Damp=F
 DIIS: error= 8.26D-04 at cycle   9 NSaved=   9.
 NSaved= 9 IEnMin= 9 EnMin= -150.957131610803     IErMin= 9 ErrMin= 8.26D-04
 ErrMax= 8.26D-04 EMaxC= 1.00D-01 BMatC= 4.35D-05 BMatP= 1.22D-04
 IDIUse=3 WtCom= 9.92D-01 WtEn= 8.26D-03
 Coeff-Com:  0.334D-02-0.901D-02-0.101D-01-0.302D-02 0.810D-01 0.137D+00
 Coeff-Com: -0.672D+00 0.667D-01 0.141D+01
 Coeff-En:   0.000D+00 0.000D+00 0.000D+00 0.000D+00 0.000D+00 0.000D+00
 Coeff-En:   0.000D+00 0.000D+00 0.100D+01
 Coeff:      0.331D-02-0.893D-02-0.100D-01-0.299D-02 0.803D-01 0.135D+00
 Coeff:     -0.666D+00 0.661D-01 0.140D+01
 Gap=     0.288 Goal=   None    Shift=    0.000
 Gap=     0.157 Goal=   None    Shift=    0.000
 RMSDP=7.46D-04 MaxDP=1.17D-02 DE=-4.35D-04 OVMax= 6.34D-02

 Cycle  10  Pass 1  IDiag  1:
 Density matrix breaks symmetry, PCut= 1.00D-04
 Density has only Abelian symmetry.
 E= -150.957327137751     Delta-E=       -0.000195526948 Rises=F Damp=F
 DIIS: error= 2.77D-04 at cycle  10 NSaved=  10.
 NSaved=10 IEnMin=10 EnMin= -150.957327137751     IErMin=10 ErrMin= 2.77D-04
 ErrMax= 2.77D-04 EMaxC= 1.00D-01 BMatC= 7.58D-06 BMatP= 4.35D-05
 IDIUse=3 WtCom= 9.97D-01 WtEn= 2.77D-03
 Coeff-Com:  0.419D-02-0.594D-02 0.191D-02-0.745D-02-0.452D-01 0.136D+00
 Coeff-Com:  0.220D-01-0.261D+00-0.417D-01 0.120D+01
 Coeff-En:   0.000D+00 0.000D+00 0.000D+00 0.000D+00 0.000D+00 0.000D+00
 Coeff-En:   0.000D+00 0.000D+00 0.000D+00 0.100D+01
 Coeff:      0.417D-02-0.593D-02 0.190D-02-0.742D-02-0.451D-01 0.135D+00
 Coeff:      0.219D-01-0.261D+00-0.416D-01 0.120D+01
 Gap=     0.288 Goal=   None    Shift=    0.000
 Gap=     0.155 Goal=   None    Shift=    0.000
 RMSDP=6.33D-05 MaxDP=8.53D-04 DE=-1.96D-04 OVMax= 4.63D-03

 Cycle  11  Pass 1  IDiag  1:
 Density matrix breaks symmetry, PCut= 1.00D-04
 Density has only Abelian symmetry.
 E= -150.957331066754     Delta-E=       -0.000003929004 Rises=F Damp=F
 DIIS: error= 1.67D-04 at cycle  11 NSaved=  11.
 NSaved=11 IEnMin=11 EnMin= -150.957331066754     IErMin=11 ErrMin= 1.67D-04
 ErrMax= 1.67D-04 EMaxC= 1.00D-01 BMatC= 2.57D-06 BMatP= 7.58D-06
 IDIUse=3 WtCom= 9.98D-01 WtEn= 1.67D-03
 Coeff-Com: -0.912D-03 0.154D-02 0.156D-02-0.651D-03-0.578D-02-0.300D-01
 Coeff-Com:  0.637D-01-0.368D-01-0.979D-01 0.346D+00 0.759D+00
 Coeff-En:   0.000D+00 0.000D+00 0.000D+00 0.000D+00 0.000D+00 0.000D+00
 Coeff-En:   0.000D+00 0.000D+00 0.000D+00 0.000D+00 0.100D+01
 Coeff:     -0.910D-03 0.154D-02 0.156D-02-0.650D-03-0.577D-02-0.300D-01
 Coeff:      0.636D-01-0.367D-01-0.977D-01 0.345D+00 0.760D+00
 Gap=     0.287 Goal=   None    Shift=    0.000
 Gap=     0.157 Goal=   None    Shift=    0.000
 RMSDP=6.83D-05 MaxDP=1.03D-03 DE=-3.93D-06 OVMax= 5.65D-03

 Cycle  12  Pass 1  IDiag  1:
 Density matrix breaks symmetry, PCut= 1.00D-04
 Density has only Abelian symmetry.
 E= -150.957332550158     Delta-E=       -0.000001483404 Rises=F Damp=F
 DIIS: error= 5.69D-05 at cycle  12 NSaved=  12.
 NSaved=12 IEnMin=12 EnMin= -150.957332550158     IErMin=12 ErrMin= 5.69D-05
 ErrMax= 5.69D-05 EMaxC= 1.00D-01 BMatC= 3.29D-07 BMatP= 2.57D-06
 IDIUse=1 WtCom= 1.00D+00 WtEn= 0.00D+00
 Coeff-Com:  0.784D-04 0.170D-05 0.345D-05 0.373D-03-0.749D-03-0.156D-02
 Coeff-Com:  0.742D-02-0.837D-03-0.233D-01-0.460D-01 0.215D+00 0.850D+00
 Coeff:      0.784D-04 0.170D-05 0.345D-05 0.373D-03-0.749D-03-0.156D-02
 Coeff:      0.742D-02-0.837D-03-0.233D-01-0.460D-01 0.215D+00 0.850D+00
 Gap=     0.287 Goal=   None    Shift=    0.000
 Gap=     0.156 Goal=   None    Shift=    0.000
 RMSDP=5.16D-06 MaxDP=4.54D-05 DE=-1.48D-06 OVMax= 2.30D-04

 Cycle  13  Pass 1  IDiag  1:
 E= -150.957338478492     Delta-E=       -0.000005928334 Rises=F Damp=F
 DIIS: error= 5.70D-06 at cycle  13 NSaved=  13.
 NSaved=13 IEnMin=13 EnMin= -150.957338478492     IErMin=13 ErrMin= 5.70D-06
 ErrMax= 5.70D-06 EMaxC= 1.00D-01 BMatC= 2.25D-09 BMatP= 3.29D-07
 IDIUse=1 WtCom= 1.00D+00 WtEn= 0.00D+00
 Coeff-Com: -0.506D-04 0.736D-04-0.605D-04-0.225D-04 0.439D-03-0.469D-03
 Coeff-Com: -0.231D-02 0.373D-02 0.317D-02-0.524D-02-0.205D-01-0.153D-01
 Coeff-Com:  0.104D+01
 Coeff:     -0.506D-04 0.736D-04-0.605D-04-0.225D-04 0.439D-03-0.469D-03
 Coeff:     -0.231D-02 0.373D-02 0.317D-02-0.524D-02-0.205D-01-0.153D-01
 Coeff:      0.104D+01
 Gap=     0.287 Goal=   None    Shift=    0.000
 Gap=     0.156 Goal=   None    Shift=    0.000
 RMSDP=1.33D-06 MaxDP=1.74D-05 DE=-5.93D-06 OVMax= 8.50D-05

 Cycle  14  Pass 1  IDiag  1:
 E= -150.957333622314     Delta-E=        0.000004856178 Rises=F Damp=F
 DIIS: error= 3.56D-06 at cycle  14 NSaved=  14.
 NSaved=14 IEnMin=13 EnMin= -150.957338478492     IErMin=14 ErrMin= 3.56D-06
 ErrMax= 3.56D-06 EMaxC= 1.00D-01 BMatC= 1.12D-09 BMatP= 2.25D-09
 IDIUse=1 WtCom= 1.00D+00 WtEn= 0.00D+00
 Coeff-Com: -0.545D-06-0.865D-05-0.250D-04-0.737D-05 0.602D-04 0.217D-03
 Coeff-Com: -0.114D-02 0.907D-03 0.258D-02-0.638D-03-0.197D-01-0.734D-01
 Coeff-Com:  0.290D+00 0.802D+00
 Coeff:     -0.545D-06-0.865D-05-0.250D-04-0.737D-05 0.602D-04 0.217D-03
 Coeff:     -0.114D-02 0.907D-03 0.258D-02-0.638D-03-0.197D-01-0.734D-01
 Coeff:      0.290D+00 0.802D+00
 Gap=     0.287 Goal=   None    Shift=    0.000
 Gap=     0.156 Goal=   None    Shift=    0.000
 RMSDP=5.79D-07 MaxDP=7.95D-06 DE= 4.86D-06 OVMax= 4.44D-05

 Cycle  15  Pass 1  IDiag  1:
 E= -150.957332101258     Delta-E=        0.000001521056 Rises=F Damp=F
 DIIS: error= 1.38D-06 at cycle  15 NSaved=  15.
 NSaved=15 IEnMin=13 EnMin= -150.957338478492     IErMin=15 ErrMin= 1.38D-06
 ErrMax= 1.38D-06 EMaxC= 1.00D-01 BMatC= 1.72D-10 BMatP= 1.12D-09
 IDIUse=1 WtCom= 1.00D+00 WtEn= 0.00D+00
 Coeff-Com: -0.116D-04 0.151D-04-0.201D-06-0.153D-04 0.753D-04-0.953D-04
 Coeff-Com: -0.461D-03 0.514D-03 0.118D-02-0.956D-03-0.533D-02-0.106D-01
 Coeff-Com:  0.935D-01-0.561D+00 0.148D+01
 Coeff:     -0.116D-04 0.151D-04-0.201D-06-0.153D-04 0.753D-04-0.953D-04
 Coeff:     -0.461D-03 0.514D-03 0.118D-02-0.956D-03-0.533D-02-0.106D-01
 Coeff:      0.935D-01-0.561D+00 0.148D+01
 Gap=     0.287 Goal=   None    Shift=    0.000
 Gap=     0.156 Goal=   None    Shift=    0.000
 RMSDP=2.60D-07 MaxDP=2.61D-06 DE= 1.52D-06 OVMax= 1.52D-05

 Cycle  16  Pass 1  IDiag  1:
 E= -150.957332756320     Delta-E=       -0.000000655062 Rises=F Damp=F
 DIIS: error= 5.91D-07 at cycle  16 NSaved=  16.
 NSaved=16 IEnMin=13 EnMin= -150.957338478492     IErMin=16 ErrMin= 5.91D-07
 ErrMax= 5.91D-07 EMaxC= 1.00D-01 BMatC= 4.21D-11 BMatP= 1.72D-10
 IDIUse=1 WtCom= 1.00D+00 WtEn= 0.00D+00
 Coeff-Com:  0.220D-05-0.472D-05 0.173D-05 0.873D-05-0.217D-05-0.248D-04
 Coeff-Com:  0.856D-04-0.143D-03 0.637D-04-0.361D-03 0.735D-03-0.644D-02
 Coeff-Com: -0.489D-01-0.806D-01 0.245D+00 0.891D+00
 Coeff:      0.220D-05-0.472D-05 0.173D-05 0.873D-05-0.217D-05-0.248D-04
 Coeff:      0.856D-04-0.143D-03 0.637D-04-0.361D-03 0.735D-03-0.644D-02
 Coeff:     -0.489D-01-0.806D-01 0.245D+00 0.891D+00
 Gap=     0.287 Goal=   None    Shift=    0.000
 Gap=     0.156 Goal=   None    Shift=    0.000
 RMSDP=1.31D-07 MaxDP=1.71D-06 DE=-6.55D-07 OVMax= 9.79D-06

 Cycle  17  Pass 1  IDiag  1:
 E= -150.957332444577     Delta-E=        0.000000311743 Rises=F Damp=F
 DIIS: error= 6.17D-08 at cycle  17 NSaved=  17.
 NSaved=17 IEnMin=13 EnMin= -150.957338478492     IErMin=17 ErrMin= 6.17D-08
 ErrMax= 6.17D-08 EMaxC= 1.00D-01 BMatC= 8.05D-13 BMatP= 4.21D-11
 IDIUse=1 WtCom= 1.00D+00 WtEn= 0.00D+00
 Coeff-Com:  0.292D-06-0.506D-06 0.132D-05-0.645D-06-0.325D-05 0.515D-05
 Coeff-Com: -0.932D-06-0.310D-04 0.552D-04-0.105D-03 0.154D-03-0.401D-03
 Coeff-Com: -0.128D-01 0.134D-01-0.627D-02 0.953D-01 0.911D+00
 Coeff:      0.292D-06-0.506D-06 0.132D-05-0.645D-06-0.325D-05 0.515D-05
 Coeff:     -0.932D-06-0.310D-04 0.552D-04-0.105D-03 0.154D-03-0.401D-03
 Coeff:     -0.128D-01 0.134D-01-0.627D-02 0.953D-01 0.911D+00
 Gap=     0.287 Goal=   None    Shift=    0.000
 Gap=     0.156 Goal=   None    Shift=    0.000
 RMSDP=3.71D-08 MaxDP=5.61D-07 DE= 3.12D-07 OVMax= 3.07D-06

 Cycle  18  Pass 1  IDiag  1:
 E= -150.957332612934     Delta-E=       -0.000000168356 Rises=F Damp=F
 DIIS: error= 6.10D-08 at cycle  18 NSaved=  18.
 NSaved=18 IEnMin=13 EnMin= -150.957338478492     IErMin=18 ErrMin= 6.10D-08
 ErrMax= 6.10D-08 EMaxC= 1.00D-01 BMatC= 1.42D-13 BMatP= 8.05D-13
 IDIUse=1 WtCom= 1.00D+00 WtEn= 0.00D+00
 Coeff-Com:  0.582D-07-0.113D-06 0.963D-07 0.188D-06 0.565D-06-0.268D-06
 Coeff-Com:  0.350D-05-0.194D-05-0.988D-05-0.295D-05 0.291D-05 0.140D-03
 Coeff-Com: -0.214D-02 0.985D-02 0.120D-01-0.804D-01-0.912D-01 0.115D+01
 Coeff:      0.582D-07-0.113D-06 0.963D-07 0.188D-06 0.565D-06-0.268D-06
 Coeff:      0.350D-05-0.194D-05-0.988D-05-0.295D-05 0.291D-05 0.140D-03
 Coeff:     -0.214D-02 0.985D-02 0.120D-01-0.804D-01-0.912D-01 0.115D+01
 Gap=     0.287 Goal=   None    Shift=    0.000
 Gap=     0.156 Goal=   None    Shift=    0.000
 RMSDP=4.66D-09 MaxDP=5.24D-08 DE=-1.68D-07 OVMax= 2.43D-07

 SCF Done:  E(UB3LYP) =  -150.957332613     A.U. after   18 cycles
             Convg  =    0.4657D-08             -V/T =  2.0022
 <Sx>= 0.0000 <Sy>= 0.0000 <Sz>= 0.5000 <S**2>= 0.7537 S= 0.5018
 <L.S>= 0.000000000000E+00
 KE= 1.506224002700D+02 PE=-4.219519819002D+02 EE= 8.804573102003D+01
 Annihilation of the first spin contaminant:
 S**2 before annihilation     0.7537,   after     0.7500
 Leave Link  502 at Fri Feb  7 01:52:17 2014, MaxMem= 4026531840 cpu:       5.5
 (Enter /usr/caen/gaussian-09revc/g09/l601.exe)
 Copying SCF densities to generalized density rwf, IOpCl= 1 IROHF=0.

 **********************************************************************

            Population analysis using the SCF density.

 **********************************************************************

 Orbital symmetries:
 Alpha Orbitals:
       Occupied  (A') (A') (A') (A') (A') (A") (A') (A") (A')
       Virtual   (A') (A') (A') (A") (A') (A') (A') (A") (A') (A')
                 (A') (A') (A") (A') (A') (A') (A") (A') (A') (A")
                 (A') (A') (A') (A") (A') (A') (A') (A") (A') (A")
                 (A") (A') (A') (A') (A') (A") (A') (A") (A') (A')
                 (A') (A')
 Beta  Orbitals:
       Occupied  (A') (A') (A') (A') (A') (A') (A") (A')
       Virtual   (A") (A') (A') (A') (A") (A') (A') (A') (A') (A")
                 (A') (A') (A') (A') (A') (A") (A') (A') (A") (A')
                 (A") (A') (A') (A') (A") (A') (A') (A') (A") (A')
                 (A") (A") (A') (A') (A') (A') (A") (A') (A") (A')
                 (A') (A') (A')
 The electronic state is 2-A".
 Alpha  occ. eigenvalues --  -19.25979 -19.22286  -1.22225  -0.89505  -0.58451
 Alpha  occ. eigenvalues --   -0.51293  -0.49544  -0.31929  -0.31326
 Alpha virt. eigenvalues --   -0.02599   0.04904   0.10855   0.12914   0.14889
 Alpha virt. eigenvalues --    0.16703   0.19067   0.20176   0.20319   0.22667
 Alpha virt. eigenvalues --    0.32967   0.48885   0.93005   0.93135   0.95221
 Alpha virt. eigenvalues --    0.97593   1.00495   1.04400   1.28679   1.29892
 Alpha virt. eigenvalues --    1.42061   1.53753   1.96394   2.34934   2.40004
 Alpha virt. eigenvalues --    2.56445   2.64581   2.71689   2.77043   3.02200
 Alpha virt. eigenvalues --    3.25495   3.37696   3.67958   3.80786   4.72640
 Alpha virt. eigenvalues --    4.74708   4.89112   4.92069   5.32133   5.95059
 Alpha virt. eigenvalues --   49.70680  49.73136
  Beta  occ. eigenvalues --  -19.25094 -19.20195  -1.19491  -0.85442  -0.56753
  Beta  occ. eigenvalues --   -0.48019  -0.43375  -0.29391
  Beta virt. eigenvalues --   -0.13765  -0.02407   0.06059   0.10986   0.13682
  Beta virt. eigenvalues --    0.15131   0.17743   0.19150   0.20578   0.21425
  Beta virt. eigenvalues --    0.22786   0.33296   0.49083   0.93573   0.95635
  Beta virt. eigenvalues --    0.96098   0.98433   1.05151   1.05230   1.29645
  Beta virt. eigenvalues --    1.30489   1.43362   1.54804   1.96722   2.38955
  Beta virt. eigenvalues --    2.40906   2.57440   2.66734   2.77657   2.83377
  Beta virt. eigenvalues --    3.04983   3.30345   3.38689   3.69782   3.82003
  Beta virt. eigenvalues --    4.73642   4.80362   4.90767   4.99086   5.33030
  Beta virt. eigenvalues --    5.96508  49.72336  49.74456
          Condensed to atoms (all electrons):
              1          2          3
     1  O    7.775820   0.235220   0.115828
     2  H    0.235220   0.546041  -0.049226
     3  O    0.115828  -0.049226   8.074495
 Mulliken atomic charges:
              1
     1  O   -0.126868
     2  H    0.267965
     3  O   -0.141097
 Sum of Mulliken atomic charges =   0.00000
 Mulliken charges with hydrogens summed into heavy atoms:
              1
     1  O    0.141097
     3  O   -0.141097
 Sum of Mulliken charges with hydrogens summed into heavy atoms =   0.00000
          Atomic-Atomic Spin Densities.
              1          2          3
     1  O    0.416782   0.004543  -0.149800
     2  H    0.004543  -0.015287   0.000990
     3  O   -0.149800   0.000990   0.887039
 Mulliken atomic spin densities:
              1
     1  O    0.271525
     2  H   -0.009754
     3  O    0.738229
 Sum of Mulliken atomic spin densities =   1.00000
 Electronic spatial extent (au):  <R**2>=             54.9805
 Charge=              0.0000 electrons
 Dipole moment (field-independent basis, Debye):
    X=             -1.8220    Y=             -1.5599    Z=              0.0000  Tot=              2.3986
 Quadrupole moment (field-independent basis, Debye-Ang):
   XX=            -10.2464   YY=            -11.0763   ZZ=            -11.1039
   XY=              1.8332   XZ=              0.0000   YZ=              0.0000
 Traceless Quadrupole moment (field-independent basis, Debye-Ang):
   XX=              0.5625   YY=             -0.2674   ZZ=             -0.2950
   XY=              1.8332   XZ=              0.0000   YZ=              0.0000
 Octapole moment (field-independent basis, Debye-Ang**2):
  XXX=             -2.0811  YYY=             -2.2229  ZZZ=              0.0000  XYY=             -1.9901
  XXY=             -2.0854  XXZ=              0.0000  XZZ=             -0.2646  YZZ=              0.0247
  YYZ=              0.0000  XYZ=              0.0000
 Hexadecapole moment (field-independent basis, Debye-Ang**3):
 XXXX=            -10.0364 YYYY=            -37.3795 ZZZZ=             -8.6136 XXXY=              0.2684
 XXXZ=              0.0000 YYYX=              0.9154 YYYZ=              0.0000 ZZZX=              0.0000
 ZZZY=              0.0000 XXYY=             -7.9974 XXZZ=             -3.3205 YYZZ=             -8.2269
 XXYZ=              0.0000 YYXZ=              0.0000 ZZXY=             -0.2325
 N-N= 3.232651799729D+01 E-N=-6.262385888839D+02  KE= 2.242938261314D+02
 Symmetry A'   KE= 2.147313705665D+02
 Symmetry A"   KE= 9.562455564903D+00
                          Isotropic Fermi Contact Couplings
        Atom                 a.u.       MegaHertz       Gauss      10(-4) cm-1
     1  O(17)              0.03481     -21.10343      -7.53023      -7.03935
     2  H(1)              -0.00580     -25.92939      -9.25225      -8.64911
     3  O(17)              0.05584     -33.84717     -12.07751     -11.29020
 --------------------------------------------------------
       Center         ----  Spin Dipole Couplings  ----
                      3XX-RR        3YY-RR        3ZZ-RR
 --------------------------------------------------------
     1   Atom       -0.723755     -0.756144      1.479899
     2   Atom        0.044037     -0.018708     -0.025328
     3   Atom       -1.621240     -1.647102      3.268343
 --------------------------------------------------------
                        XY            XZ            YZ
 --------------------------------------------------------
     1   Atom        0.027017      0.000000      0.000000
     2   Atom        0.046875      0.000000      0.000000
     3   Atom       -0.007783      0.000000      0.000000
 --------------------------------------------------------


 ---------------------------------------------------------------------------------
              Anisotropic Spin Dipole Couplings in Principal Axis System
 ---------------------------------------------------------------------------------

       Atom             a.u.   MegaHertz   Gauss  10(-4) cm-1        Axes

              Baa    -0.7714    55.821    19.918    18.620 -0.4929  0.8701  0.0000
     1 O(17)  Bbb    -0.7085    51.263    18.292    17.099  0.8701  0.4929  0.0000
              Bcc     1.4799  -107.084   -38.210   -35.720  0.0000  0.0000  1.0000
 
              Baa    -0.0437   -23.338    -8.328    -7.785 -0.4711  0.8821  0.0000
     2 H(1)   Bbb    -0.0253   -13.514    -4.822    -4.508  0.0000  0.0000  1.0000
              Bcc     0.0691    36.852    13.150    12.292  0.8821  0.4711  0.0000
 
              Baa    -1.6493   119.340    42.583    39.807  0.2676  0.9635  0.0000
     3 O(17)  Bbb    -1.6191   117.155    41.804    39.079  0.9635 -0.2676  0.0000
              Bcc     3.2683  -236.495   -84.387   -78.886  0.0000  0.0000  1.0000
 

 ---------------------------------------------------------------------------------

 No NMR shielding tensors so no spin-rotation constants.
 Leave Link  601 at Fri Feb  7 01:52:18 2014, MaxMem= 4026531840 cpu:       1.6
 (Enter /usr/caen/gaussian-09revc/g09/l801.exe)
 Range of M.O.s used for correlation:     1    51
 NBasis=    51 NAE=     9 NBE=     8 NFC=     0 NFV=     0
 NROrb=     51 NOA=     9 NOB=     8 NVA=    42 NVB=    43

 **** Warning!!: The largest alpha MO coefficient is  0.17064598D+02


 **** Warning!!: The largest beta MO coefficient is  0.17039664D+02

 Leave Link  801 at Fri Feb  7 01:52:18 2014, MaxMem= 4026531840 cpu:       0.1
 (Enter /usr/caen/gaussian-09revc/g09/l914.exe)
 UHF ground state
 Doing stability rather than CIS.
 MDV=  4026531840 DFT=T DoStab=T Mixed=T DoRPA=F DoScal=F NonHer=F
 Keep R1 and R2 ints in memory in canonical form, NReq=11609411.
 Symmetry not used in FoFDir.
 MinBra= 0 MaxBra= 2 Meth= 1.
 IRaf=       0 NMat=   1 IRICut=       1 DoRegI=T DoRafI=F ISym2E= 0 JSym2E=0.
 Making orbital integer symmetry assigments:
 Orbital symmetries:
 Alpha Orbitals:
       Occupied  (A') (A') (A') (A') (A') (A") (A') (A") (A')
       Virtual   (A') (A') (A') (A") (A') (A') (A') (A") (A') (A')
                 (A') (A') (A") (A') (A') (A') (A") (A') (A') (A")
                 (A') (A') (A') (A") (A') (A') (A') (A") (A') (A")
                 (A") (A') (A') (A') (A') (A") (A') (A") (A') (A')
                 (A') (A')
 Beta  Orbitals:
       Occupied  (A') (A') (A') (A') (A') (A') (A") (A')
       Virtual   (A") (A') (A') (A') (A") (A') (A') (A') (A') (A")
                 (A') (A') (A') (A') (A') (A") (A') (A') (A") (A')
                 (A") (A') (A') (A') (A") (A') (A') (A') (A") (A')
                 (A") (A") (A') (A') (A') (A') (A") (A') (A") (A')
                 (A') (A') (A')
    12 initial guesses have been made.
 Convergence on wavefunction:    0.001000000000000
 Davidson Disk Diagonalization:  ConvIn= 1.00D-03 SkipCon=T Conv= 1.00D-03.
 Max sub-space:   200 roots to seek:    12 dimension of matrix:    722
 Iteration     1 Dimension    12 NMult    12
 CISAX:  IP=  1 NPass=   1 NMax=    12.
 CISAX will form    12 AO SS matrices at one time.
 NMat=    12 NSing=    12.
 Excitation Energies [eV] at current iteration:
 Root      1 :     1.171725230142170
 Root      2 :     5.957420613496499
 Root      3 :     6.585044845984565
 Root      4 :     6.610766253882401
 Root      5 :     6.869391408991532
 Root      6 :     7.197096411963969
 Root      7 :     8.166085123123755
 Root      8 :     8.628233281781146
 Root      9 :     9.593592767025243
 Root     10 :     9.837357684165791
 Root     11 :    10.033235711622560
 Root     12 :    12.052162966780670
 Iteration     2 Dimension    24 NMult    24
 CISAX:  IP=  1 NPass=   1 NMax=    12.
 CISAX will form    12 AO SS matrices at one time.
 NMat=    12 NSing=    12.
 Root      1 not converged, maximum delta is    0.051134754910944
 Excitation Energies [eV] at current iteration:
 Root      1 :     0.969649720152537   Change is   -0.202075509989633
 Root      2 :     5.565413362079672   Change is   -0.392007251416828
 Root      3 :     6.087133427810609
 Iteration     3 Dimension    27 NMult    27
 CISAX:  IP=  1 NPass=   1 NMax=     3.
 CISAX will form     3 AO SS matrices at one time.
 NMat=     3 NSing=     3.
 Root      1 not converged, maximum delta is    0.007105368520205
 Excitation Energies [eV] at current iteration:
 Root      1 :     0.966073758175475   Change is   -0.003575961977061
 Root      2 :     5.550485292221413   Change is   -0.014928069858258
 Root      3 :     5.853112300592243   Change is   -0.234021127218366
 Iteration     4 Dimension    30 NMult    30
 CISAX:  IP=  1 NPass=   1 NMax=     3.
 CISAX will form     3 AO SS matrices at one time.
 NMat=     3 NSing=     3.
 Root      1 not converged, maximum delta is    0.001039861269720
 Excitation Energies [eV] at current iteration:
 Root      1 :     0.966013574082577   Change is   -0.000060184092898
 Root      2 :     5.548985952862019   Change is   -0.001499339359395
 Root      3 :     5.831403759810035   Change is   -0.021708540782208
 Iteration     5 Dimension    33 NMult    33
 CISAX:  IP=  1 NPass=   1 NMax=     3.
 CISAX will form     3 AO SS matrices at one time.
 NMat=     3 NSing=     3.
 Root      1 has converged.
 Excitation Energies [eV] at current iteration:
 Root      1 :     0.966012293099373   Change is   -0.000001280983204
 Root      2 :     5.548636855628774   Change is   -0.000349097233244
 Root      3 :     5.828980429946011   Change is   -0.002423329864024
 Convergence achieved on expansion vectors.
 ***********************************************************************
 Stability analysis using <AA,BB:AA,BB> singles matrix:
 ***********************************************************************

 Eigenvectors of the stability matrix:
 
 Eigenvector   1:  1.000-A"   Eigenvalue= 0.0355003  <S**2>=0.000
      8B ->  9B        0.99331
 SavETr:  write IOETrn=   770 NScale= 10 NData=  16 NLR=1 LETran=      28.
 The wavefunction is stable under the perturbations considered.
 Leave Link  914 at Fri Feb  7 01:52:19 2014, MaxMem= 4026531840 cpu:       9.4
 (Enter /usr/caen/gaussian-09revc/g09/l502.exe)
 The wavefunction is already stable.
 Leave Link  502 at Fri Feb  7 01:52:19 2014, MaxMem= 4026531840 cpu:       0.1
 (Enter /usr/caen/gaussian-09revc/g09/l508.exe)
 The wavefunction is already stable.
 Leave Link  508 at Fri Feb  7 01:52:20 2014, MaxMem= 4026531840 cpu:       0.0
 (Enter /usr/caen/gaussian-09revc/g09/l601.exe)
 Copying SCF densities to generalized density rwf, IOpCl= 1 IROHF=0.

 **********************************************************************

            Population analysis using the SCF density.

 **********************************************************************

 Orbital symmetries:
 Alpha Orbitals:
       Occupied  (A') (A') (A') (A') (A') (A") (A') (A") (A')
       Virtual   (A') (A') (A') (A") (A') (A') (A') (A") (A') (A')
                 (A') (A') (A") (A') (A') (A') (A") (A') (A') (A")
                 (A') (A') (A') (A") (A') (A') (A') (A") (A') (A")
                 (A") (A') (A') (A') (A') (A") (A') (A") (A') (A')
                 (A') (A')
 Beta  Orbitals:
       Occupied  (A') (A') (A') (A') (A') (A') (A") (A')
       Virtual   (A") (A') (A') (A') (A") (A') (A') (A') (A') (A")
                 (A') (A') (A') (A') (A') (A") (A') (A') (A") (A')
                 (A") (A') (A') (A') (A") (A') (A') (A') (A") (A')
                 (A") (A") (A') (A') (A') (A') (A") (A') (A") (A')
                 (A') (A') (A')
 The electronic state is 2-A".
 Alpha  occ. eigenvalues --  -19.25979 -19.22286  -1.22225  -0.89505  -0.58451
 Alpha  occ. eigenvalues --   -0.51293  -0.49544  -0.31929  -0.31326
 Alpha virt. eigenvalues --   -0.02599   0.04904   0.10855   0.12914   0.14889
 Alpha virt. eigenvalues --    0.16703   0.19067   0.20176   0.20319   0.22667
 Alpha virt. eigenvalues --    0.32967   0.48885   0.93005   0.93135   0.95221
 Alpha virt. eigenvalues --    0.97593   1.00495   1.04400   1.28679   1.29892
 Alpha virt. eigenvalues --    1.42061   1.53753   1.96394   2.34934   2.40004
 Alpha virt. eigenvalues --    2.56445   2.64581   2.71689   2.77043   3.02200
 Alpha virt. eigenvalues --    3.25495   3.37696   3.67958   3.80786   4.72640
 Alpha virt. eigenvalues --    4.74708   4.89112   4.92069   5.32133   5.95059
 Alpha virt. eigenvalues --   49.70680  49.73136
  Beta  occ. eigenvalues --  -19.25094 -19.20195  -1.19491  -0.85442  -0.56753
  Beta  occ. eigenvalues --   -0.48019  -0.43375  -0.29391
  Beta virt. eigenvalues --   -0.13765  -0.02407   0.06059   0.10986   0.13682
  Beta virt. eigenvalues --    0.15131   0.17743   0.19150   0.20578   0.21425
  Beta virt. eigenvalues --    0.22786   0.33296   0.49083   0.93573   0.95635
  Beta virt. eigenvalues --    0.96098   0.98433   1.05151   1.05230   1.29645
  Beta virt. eigenvalues --    1.30489   1.43362   1.54804   1.96722   2.38955
  Beta virt. eigenvalues --    2.40906   2.57440   2.66734   2.77657   2.83377
  Beta virt. eigenvalues --    3.04983   3.30345   3.38689   3.69782   3.82003
  Beta virt. eigenvalues --    4.73642   4.80362   4.90767   4.99086   5.33030
  Beta virt. eigenvalues --    5.96508  49.72336  49.74456
          Condensed to atoms (all electrons):
              1          2          3
     1  O    7.775820   0.235220   0.115828
     2  H    0.235220   0.546041  -0.049226
     3  O    0.115828  -0.049226   8.074495
 Mulliken atomic charges:
              1
     1  O   -0.126868
     2  H    0.267965
     3  O   -0.141097
 Sum of Mulliken atomic charges =   0.00000
 Mulliken charges with hydrogens summed into heavy atoms:
              1
     1  O    0.141097
     3  O   -0.141097
 Sum of Mulliken charges with hydrogens summed into heavy atoms =   0.00000
          Atomic-Atomic Spin Densities.
              1          2          3
     1  O    0.416782   0.004543  -0.149800
     2  H    0.004543  -0.015287   0.000990
     3  O   -0.149800   0.000990   0.887039
 Mulliken atomic spin densities:
              1
     1  O    0.271525
     2  H   -0.009754
     3  O    0.738229
 Sum of Mulliken atomic spin densities =   1.00000
 Electronic spatial extent (au):  <R**2>=             54.9805
 Charge=              0.0000 electrons
 Dipole moment (field-independent basis, Debye):
    X=             -1.8220    Y=             -1.5599    Z=              0.0000  Tot=              2.3986
 Quadrupole moment (field-independent basis, Debye-Ang):
   XX=            -10.2464   YY=            -11.0763   ZZ=            -11.1039
   XY=              1.8332   XZ=              0.0000   YZ=              0.0000
 Traceless Quadrupole moment (field-independent basis, Debye-Ang):
   XX=              0.5625   YY=             -0.2674   ZZ=             -0.2950
   XY=              1.8332   XZ=              0.0000   YZ=              0.0000
 Octapole moment (field-independent basis, Debye-Ang**2):
  XXX=             -2.0811  YYY=             -2.2229  ZZZ=              0.0000  XYY=             -1.9901
  XXY=             -2.0854  XXZ=              0.0000  XZZ=             -0.2646  YZZ=              0.0247
  YYZ=              0.0000  XYZ=              0.0000
 Hexadecapole moment (field-independent basis, Debye-Ang**3):
 XXXX=            -10.0364 YYYY=            -37.3795 ZZZZ=             -8.6136 XXXY=              0.2684
 XXXZ=              0.0000 YYYX=              0.9154 YYYZ=              0.0000 ZZZX=              0.0000
 ZZZY=              0.0000 XXYY=             -7.9974 XXZZ=             -3.3205 YYZZ=             -8.2269
 XXYZ=              0.0000 YYXZ=              0.0000 ZZXY=             -0.2325
 N-N= 3.232651799729D+01 E-N=-6.262385888839D+02  KE= 2.242938261314D+02
 Symmetry A'   KE= 2.147313705665D+02
 Symmetry A"   KE= 9.562455564903D+00
                          Isotropic Fermi Contact Couplings
        Atom                 a.u.       MegaHertz       Gauss      10(-4) cm-1
     1  O(17)              0.03481     -21.10343      -7.53023      -7.03935
     2  H(1)              -0.00580     -25.92939      -9.25225      -8.64911
     3  O(17)              0.05584     -33.84717     -12.07751     -11.29020
 --------------------------------------------------------
       Center         ----  Spin Dipole Couplings  ----
                      3XX-RR        3YY-RR        3ZZ-RR
 --------------------------------------------------------
     1   Atom       -0.723755     -0.756144      1.479899
     2   Atom        0.044037     -0.018708     -0.025328
     3   Atom       -1.621240     -1.647102      3.268343
 --------------------------------------------------------
                        XY            XZ            YZ
 --------------------------------------------------------
     1   Atom        0.027017      0.000000      0.000000
     2   Atom        0.046875      0.000000      0.000000
     3   Atom       -0.007783      0.000000      0.000000
 --------------------------------------------------------


 ---------------------------------------------------------------------------------
              Anisotropic Spin Dipole Couplings in Principal Axis System
 ---------------------------------------------------------------------------------

       Atom             a.u.   MegaHertz   Gauss  10(-4) cm-1        Axes

              Baa    -0.7714    55.821    19.918    18.620 -0.4929  0.8701  0.0000
     1 O(17)  Bbb    -0.7085    51.263    18.292    17.099  0.8701  0.4929  0.0000
              Bcc     1.4799  -107.084   -38.210   -35.720  0.0000  0.0000  1.0000
 
              Baa    -0.0437   -23.338    -8.328    -7.785 -0.4711  0.8821  0.0000
     2 H(1)   Bbb    -0.0253   -13.514    -4.822    -4.508  0.0000  0.0000  1.0000
              Bcc     0.0691    36.852    13.150    12.292  0.8821  0.4711  0.0000
 
              Baa    -1.6493   119.340    42.583    39.807  0.2676  0.9635  0.0000
     3 O(17)  Bbb    -1.6191   117.155    41.804    39.079  0.9635 -0.2676  0.0000
              Bcc     3.2683  -236.495   -84.387   -78.886  0.0000  0.0000  1.0000
 

 ---------------------------------------------------------------------------------

 No NMR shielding tensors so no spin-rotation constants.
 Leave Link  601 at Fri Feb  7 01:52:20 2014, MaxMem= 4026531840 cpu:       1.6
 (Enter /usr/caen/gaussian-09revc/g09/l9999.exe)
 1\1\GINC-NYX5834\Stability\UB3LYP\6-311++G(d,p)\H1O2(2)\HETANJIN\07-Fe
 b-2014\0\\#p stable=(opt,xqc) ub3lyp/6-311++g(d,p) guess=mix\\HO2 usin
 g B3LYP/6-311++g(d,p) to do opt and cal. freq\\0,2\O,0,0.18674393,-0.7
 0276119,1.76932155\H,0,-0.13371066,0.20217464,1.76932155\O,0,1.5067439
 3,-0.70276119,1.76932155\\Version=EM64L-G09RevC.01\State=2-A"\HF=-150.
 9573326\S2=0.7537\S2-1=0.\S2A=0.750008\RMSD=4.657e-09\Dipole=-0.613702
 9,0.7168475,0.\Quadrupole=-0.1988404,0.4181891,-0.2193487,-1.3629159,0
 .,0.\PG=CS [SG(H1O2)]\\@


 HE WHO LOVES TO READ, AND KNOWS HOW TO REFLECT,
 HAS LAID BY A PERPETUAL FEAST FOR HIS OLD AGE.
 -- UNCLE ESEK, "SCRIBNER'S MONTHLY", SEPT. 1880
 Job cpu time:  0 days  0 hours  0 minutes 22.8 seconds.
 File lengths (MBytes):  RWF=     10 Int=      0 D2E=      0 Chk=      1 Scr=      1
 Normal termination of Gaussian 09 at Fri Feb  7 01:52:20 2014.
 Initial command:
 /usr/caen/gaussian-09revc/g09/l1.exe /scratch/avioli_flux/hetanjin/scratch/Gau-65967.inp -scrdir=/scratch/avioli_flux/hetanjin/scratch/
 Entering Link 1 = /usr/caen/gaussian-09revc/g09/l1.exe PID=     66082.
  
 Copyright (c) 1988,1990,1992,1993,1995,1998,2003,2009,2011,
            Gaussian, Inc.  All Rights Reserved.
  
 This is part of the Gaussian(R) 09 program.  It is based on
 the Gaussian(R) 03 system (copyright 2003, Gaussian, Inc.),
 the Gaussian(R) 98 system (copyright 1998, Gaussian, Inc.),
 the Gaussian(R) 94 system (copyright 1995, Gaussian, Inc.),
 the Gaussian 92(TM) system (copyright 1992, Gaussian, Inc.),
 the Gaussian 90(TM) system (copyright 1990, Gaussian, Inc.),
 the Gaussian 88(TM) system (copyright 1988, Gaussian, Inc.),
 the Gaussian 86(TM) system (copyright 1986, Carnegie Mellon
 University), and the Gaussian 82(TM) system (copyright 1983,
 Carnegie Mellon University). Gaussian is a federally registered
 trademark of Gaussian, Inc.
  
 This software contains proprietary and confidential information,
 including trade secrets, belonging to Gaussian, Inc.
  
 This software is provided under written license and may be
 used, copied, transmitted, or stored only in accord with that
 written license.
  
 The following legend is applicable only to US Government
 contracts under FAR:
  
                    RESTRICTED RIGHTS LEGEND
  
 Use, reproduction and disclosure by the US Government is
 subject to restrictions as set forth in subparagraphs (a)
 and (c) of the Commercial Computer Software - Restricted
 Rights clause in FAR 52.227-19.
  
 Gaussian, Inc.
 340 Quinnipiac St., Bldg. 40, Wallingford CT 06492
  
  
 ---------------------------------------------------------------
 Warning -- This program may not be used in any manner that
 competes with the business of Gaussian, Inc. or will provide
 assistance to any competitor of Gaussian, Inc.  The licensee
 of this program is prohibited from giving any competitor of
 Gaussian, Inc. access to this program.  By using this program,
 the user acknowledges that Gaussian, Inc. is engaged in the
 business of creating and licensing software in the field of
 computational chemistry and represents and warrants to the
 licensee that it is not a competitor of Gaussian, Inc. and that
 it will not use this program in any manner prohibited above.
 ---------------------------------------------------------------
  

 Cite this work as:
 Gaussian 09, Revision C.01,
 M. J. Frisch, G. W. Trucks, H. B. Schlegel, G. E. Scuseria, 
 M. A. Robb, J. R. Cheeseman, G. Scalmani, V. Barone, B. Mennucci, 
 G. A. Petersson, H. Nakatsuji, M. Caricato, X. Li, H. P. Hratchian, 
 A. F. Izmaylov, J. Bloino, G. Zheng, J. L. Sonnenberg, M. Hada, 
 M. Ehara, K. Toyota, R. Fukuda, J. Hasegawa, M. Ishida, T. Nakajima, 
 Y. Honda, O. Kitao, H. Nakai, T. Vreven, J. A. Montgomery, Jr., 
 J. E. Peralta, F. Ogliaro, M. Bearpark, J. J. Heyd, E. Brothers, 
 K. N. Kudin, V. N. Staroverov, T. Keith, R. Kobayashi, J. Normand, 
 K. Raghavachari, A. Rendell, J. C. Burant, S. S. Iyengar, J. Tomasi, 
 M. Cossi, N. Rega, J. M. Millam, M. Klene, J. E. Knox, J. B. Cross, 
 V. Bakken, C. Adamo, J. Jaramillo, R. Gomperts, R. E. Stratmann, 
 O. Yazyev, A. J. Austin, R. Cammi, C. Pomelli, J. W. Ochterski, 
 R. L. Martin, K. Morokuma, V. G. Zakrzewski, G. A. Voth, 
 P. Salvador, J. J. Dannenberg, S. Dapprich, A. D. Daniels, 
 O. Farkas, J. B. Foresman, J. V. Ortiz, J. Cioslowski, 
 and D. J. Fox, Gaussian, Inc., Wallingford CT, 2010.
 
 ******************************************
 Gaussian 09:  EM64L-G09RevC.01 23-Sep-2011
                 7-Feb-2014 
 ******************************************
 %Mem=30GB
 %nprocshared=8
 Will use up to    8 processors via shared memory.
 %chk=HO2.chk
 -------------------------------------------------------------
 #p UB3LYP/6-311++G(d,p) opt=calcfc freq geom=check guess=read
 -------------------------------------------------------------
 1/10=4,14=-1,18=20,19=15,26=3,29=2,38=1/1,3;
 2/9=110,12=2,40=1/2;
 3/5=4,6=6,7=1111,11=2,14=-4,16=1,25=1,30=1,71=2,74=-5,116=2/1,2,3;
 4/5=1/1;
 5/5=2,38=6/2;
 8/6=4,10=90,11=11/1;
 11/6=1,8=1,9=11,15=111,16=1/1,2,10;
 10/6=1,7=6,13=1/2;
 6/7=2,8=2,9=2,10=2,28=1/1;
 7/10=1,18=20,25=1/1,2,3,16;
 1/10=4,14=-1,18=20,19=15/3(2);
 2/9=110/2;
 99//99;
 2/9=110/2;
 3/5=4,6=6,7=1111,11=2,14=-2,16=1,25=1,30=1,71=1,74=-5,116=2/1,2,3;
 4/5=5,16=3/1;
 5/5=2,38=5/2;
 7//1,2,3,16;
 1/14=-1,18=20,19=15/3(-5);
 2/9=110/2;
 6/7=2,8=2,9=2,10=2,19=2,28=1/1;
 99/9=1/99;
 Leave Link    1 at Fri Feb  7 01:52:20 2014, MaxMem= 4026531840 cpu:       0.5
 (Enter /usr/caen/gaussian-09revc/g09/l101.exe)
 ---------------------
 optimization and freq
 ---------------------
 Structure from the checkpoint file:  HO2.chk
 Charge =  0 Multiplicity = 2
 Z-Matrix found in file.
 O,0,0.18674393,-0.70276119,1.76932155
 H,0,-0.13371066,0.20217464,1.76932155
 O,0,1.50674393,-0.70276119,1.76932155
 Recover connectivity data from disk.
 NAtoms=      3 NQM=        0 NQMF=       0 NMMI=      3 NMMIF=      0
                NMic=       0 NMicF=      0.
                    Isotopes and Nuclear Properties:
 (Nuclear quadrupole moments (NQMom) in fm**2, nuclear magnetic moments (NMagM)
  in nuclear magnetons)

  Atom         1           2           3
 IAtWgt=          16           1          16
 AtmWgt=  15.9949146   1.0078250  15.9949146
 NucSpn=           0           1           0
 AtZEff=  -5.6000000  -1.0000000  -5.6000000
 NQMom=    0.0000000   0.0000000   0.0000000
 NMagM=    0.0000000   2.7928460   0.0000000
 Leave Link  101 at Fri Feb  7 01:52:20 2014, MaxMem= 4026531840 cpu:       1.8
 (Enter /usr/caen/gaussian-09revc/g09/l103.exe)

 GradGradGradGradGradGradGradGradGradGradGradGradGradGradGradGradGradGrad
 Berny optimization.
 Initialization pass.
                           ----------------------------
                           !    Initial Parameters    !
                           ! (Angstroms and Degrees)  !
 --------------------------                            --------------------------
 ! Name  Definition              Value          Derivative Info.                !
 --------------------------------------------------------------------------------
 ! R1    R(1,2)                  0.96           calculate D2E/DX2 analytically  !
 ! R2    R(1,3)                  1.32           calculate D2E/DX2 analytically  !
 ! A1    A(2,1,3)              109.5            calculate D2E/DX2 analytically  !
 --------------------------------------------------------------------------------
 Trust Radius=3.00D-01 FncErr=1.00D-07 GrdErr=1.00D-06
 Number of steps in this run=     20 maximum allowed number of steps=    100.
 GradGradGradGradGradGradGradGradGradGradGradGradGradGradGradGradGradGrad

 Leave Link  103 at Fri Feb  7 01:52:21 2014, MaxMem= 4026531840 cpu:       0.0
 (Enter /usr/caen/gaussian-09revc/g09/l202.exe)
                          Input orientation:                          
 ---------------------------------------------------------------------
 Center     Atomic      Atomic             Coordinates (Angstroms)
 Number     Number       Type             X           Y           Z
 ---------------------------------------------------------------------
      1          8           0        0.186744   -0.702761    1.769322
      2          1           0       -0.133711    0.202175    1.769322
      3          8           0        1.506744   -0.702761    1.769322
 ---------------------------------------------------------------------
                    Distance matrix (angstroms):
                    1          2          3
     1  O    0.000000
     2  H    0.960000   0.000000
     3  O    1.320000   1.873499   0.000000
 Stoichiometry    HO2(2)
 Framework group  CS[SG(HO2)]
 Deg. of freedom     3
 Full point group                 CS      NOp   2
 RotChk:  IX=0 Diff= 1.57D-16
 Largest Abelian subgroup         CS      NOp   2
 Largest concise Abelian subgroup C1      NOp   1
                         Standard orientation:                         
 ---------------------------------------------------------------------
 Center     Atomic      Atomic             Coordinates (Angstroms)
 Number     Number       Type             X           Y           Z
 ---------------------------------------------------------------------
      1          8           0        0.053232   -0.602326    0.000000
      2          1           0       -0.851704   -0.922781    0.000000
      3          8           0        0.053232    0.717674    0.000000
 ---------------------------------------------------------------------
 Rotational constants (GHZ):    676.6215544     33.8562775     32.2429301
 Leave Link  202 at Fri Feb  7 01:52:21 2014, MaxMem= 4026531840 cpu:       0.0
 (Enter /usr/caen/gaussian-09revc/g09/l301.exe)
 Standard basis: 6-311++G(d,p) (5D, 7F)
 Ernie: Thresh=  0.10000D-02 Tol=  0.10000D-05 Strict=F.
 There are    38 symmetry adapted basis functions of A'  symmetry.
 There are    13 symmetry adapted basis functions of A"  symmetry.
 Integral buffers will be    131072 words long.
 Raffenetti 2 integral format.
 Two-electron integral symmetry is turned on.
    51 basis functions,    81 primitive gaussians,    53 cartesian basis functions
     9 alpha electrons        8 beta electrons
       nuclear repulsion energy        32.3265179973 Hartrees.
 IExCor=  402 DFT=T Ex+Corr=B3LYP ExCW=0 ScaHFX=  0.200000
 ScaDFX=  0.800000  0.720000  1.000000  0.810000 ScalE2=  1.000000  1.000000
 IRadAn=      0 IRanWt=     -1 IRanGd=            0 ICorTp=0
 NAtoms=    3 NActive=    3 NUniq=    3 SFac= 1.00D+00 NAtFMM=   60 NAOKFM=F Big=F
 Leave Link  301 at Fri Feb  7 01:52:21 2014, MaxMem= 4026531840 cpu:       0.3
 (Enter /usr/caen/gaussian-09revc/g09/l302.exe)
 NPDir=0 NMtPBC=     1 NCelOv=     1 NCel=       1 NClECP=     1 NCelD=      1
         NCelK=      1 NCelE2=     1 NClLst=     1 CellRange=     0.0.
 One-electron integrals computed using PRISM.
 NBasis=    51 RedAO= T  NBF=    38    13
 NBsUse=    51 1.00D-06 NBFU=    38    13
 Precomputing XC quadrature grid using
 IXCGrd= 2 IRadAn=           0 IRanWt=          -1 IRanGd=           0 AccXCQ= 0.00D+00.
 NRdTot=     194 NPtTot=       24552 NUsed=       25962 NTot=       25994
 NSgBfM=    53    53    53    53    53 NAtAll=     3     3.
 Leave Link  302 at Fri Feb  7 01:52:21 2014, MaxMem= 4026531840 cpu:       0.9
 (Enter /usr/caen/gaussian-09revc/g09/l303.exe)
 DipDrv:  MaxL=1.
 Leave Link  303 at Fri Feb  7 01:52:21 2014, MaxMem= 4026531840 cpu:       0.2
 (Enter /usr/caen/gaussian-09revc/g09/l401.exe)
 Initial guess read from the checkpoint file:  HO2.chk
 B after Tr=     0.000000    0.000000    0.000000
         Rot=    1.000000    0.000000    0.000000    0.000000 Ang=   0.00 deg.
 Guess basis will be translated and rotated to current coordinates.
 Initial guess orbital symmetries:
 Alpha Orbitals:
       Occupied  (A') (A') (A') (A') (A') (A") (A') (A") (A')
       Virtual   (A') (A') (A') (A") (A') (A') (A') (A") (A') (A')
                 (A') (A') (A") (A') (A') (A') (A") (A') (A') (A")
                 (A') (A') (A') (A") (A') (A') (A') (A") (A') (A")
                 (A") (A') (A') (A') (A') (A") (A') (A") (A') (A')
                 (A') (A')
 Beta  Orbitals:
       Occupied  (A') (A') (A') (A') (A') (A') (A") (A')
       Virtual   (A") (A') (A') (A') (A") (A') (A') (A') (A') (A")
                 (A') (A') (A') (A') (A') (A") (A') (A') (A") (A')
                 (A") (A') (A') (A') (A") (A') (A') (A') (A") (A')
                 (A") (A") (A') (A') (A') (A') (A") (A') (A") (A')
                 (A') (A') (A')
 The electronic state of the initial guess is 2-A".
 Initial guess <Sx>= 0.0000 <Sy>= 0.0000 <Sz>= 0.5000 <S**2>= 0.7537 S= 0.5018
 Leave Link  401 at Fri Feb  7 01:52:21 2014, MaxMem= 4026531840 cpu:       0.6
 (Enter /usr/caen/gaussian-09revc/g09/l502.exe)
 UHF open shell SCF:
 Requested convergence on RMS density matrix=1.00D-08 within 128 cycles.
 Requested convergence on MAX density matrix=1.00D-06.
 Requested convergence on             energy=1.00D-06.
 No special actions if energy rises.
 Using DIIS extrapolation, IDIIS=  1040.
 Integral symmetry usage will be decided dynamically.
        25922 words used for storage of precomputed grid.
 Keep R1 and R2 ints in memory in canonical form, NReq=2974257.
 IEnd=       53328 IEndB=       53328 NGot=  4026531840 MDV=  4024448795
 LenX=  4024448795 LenY=  4024445545
 Symmetry not used in FoFDir.
 MinBra= 0 MaxBra= 2 Meth= 1.
 IRaf=       0 NMat=   1 IRICut=       1 DoRegI=T DoRafI=F ISym2E= 0 JSym2E=0.

 Cycle   1  Pass 1  IDiag  1:
 E= -150.957332632235    
 DIIS: error= 9.43D-09 at cycle   1 NSaved=   1.
 NSaved= 1 IEnMin= 1 EnMin= -150.957332632235     IErMin= 1 ErrMin= 9.43D-09
 ErrMax= 9.43D-09 EMaxC= 1.00D-01 BMatC= 1.38D-14 BMatP= 1.38D-14
 IDIUse=1 WtCom= 1.00D+00 WtEn= 0.00D+00
 Coeff-Com:  0.100D+01
 Coeff:      0.100D+01
 Gap=     0.287 Goal=   None    Shift=    0.000
 Gap=     0.156 Goal=   None    Shift=    0.000
 RMSDP=1.59D-09 MaxDP=1.63D-08              OVMax= 6.80D-08

 SCF Done:  E(UB3LYP) =  -150.957332632     A.U. after    1 cycles
             Convg  =    0.1593D-08             -V/T =  2.0022
 <Sx>= 0.0000 <Sy>= 0.0000 <Sz>= 0.5000 <S**2>= 0.7537 S= 0.5018
 <L.S>= 0.000000000000E+00
 KE= 1.506224006146D+02 PE=-4.219519822147D+02 EE= 8.804573097061D+01
 Annihilation of the first spin contaminant:
 S**2 before annihilation     0.7537,   after     0.7500
 Leave Link  502 at Fri Feb  7 01:52:21 2014, MaxMem= 4026531840 cpu:       0.9
 (Enter /usr/caen/gaussian-09revc/g09/l801.exe)
 Range of M.O.s used for correlation:     1    51
 NBasis=    51 NAE=     9 NBE=     8 NFC=     0 NFV=     0
 NROrb=     51 NOA=     9 NOB=     8 NVA=    42 NVB=    43

 **** Warning!!: The largest alpha MO coefficient is  0.17064598D+02


 **** Warning!!: The largest beta MO coefficient is  0.17039664D+02

 Leave Link  801 at Fri Feb  7 01:52:21 2014, MaxMem= 4026531840 cpu:       0.1
 (Enter /usr/caen/gaussian-09revc/g09/l1101.exe)
 Using compressed storage, NAtomX=     3.
 Will process   4 centers per pass.
 Leave Link 1101 at Fri Feb  7 01:52:22 2014, MaxMem= 4026531840 cpu:       0.9
 (Enter /usr/caen/gaussian-09revc/g09/l1102.exe)
 Symmetrizing basis deriv contribution to polar:
 IMax=3 JMax=2 DiffMx= 0.00D+00
 Leave Link 1102 at Fri Feb  7 01:52:22 2014, MaxMem= 4026531840 cpu:       0.2
 (Enter /usr/caen/gaussian-09revc/g09/l1110.exe)
 Forming Gx(P) for the SCF density, NAtomX=     3.
 Integral derivatives from FoFDir/FoFCou, PRISM(SPDF).
 Do as many integral derivatives as possible in FoFDir.
 G2DrvN: MDV=    4026531712.
 G2DrvN: will do     4 centers at a time, making    1 passes doing MaxLOS=2.
 Calling FoFCou, ICntrl=  3107 FMM=F I1Cent=   0 AccDes= 0.00D+00.
 FoFCou: FMM=F IPFlag=           0 FMFlag=      100000 FMFlg1=           0
         NFxFlg=           0 DoJE=F BraDBF=F KetDBF=F FulRan=T
         Omega=  0.000000  0.000000  1.000000  0.000000  0.000000 ICntrl=    3107 IOpCl=  1
         NMat0=    1 NMatS0=    1 NMatT0=    0 NMatD0=    1 NMtDS0=    0 NMtDT0=    0
         I1Cent=           0 NGrid=           0.
 Petite list used in FoFCou.
 FoFDir/FoFCou used for L=0 through L=2.
 End of G2Drv Frequency-dependent properties file   721 does not exist.
 End of G2Drv Frequency-dependent properties file   722 does not exist.
 Leave Link 1110 at Fri Feb  7 01:52:22 2014, MaxMem= 4026531840 cpu:       2.4
 (Enter /usr/caen/gaussian-09revc/g09/l1002.exe)
 Minotr:  UHF open shell wavefunction.
          IDoAtm=111
          Direct CPHF calculation.
          Differentiating once with respect to nuclear coordinates.
          Using symmetry in CPHF.
          Requested convergence is 1.0D-06 RMS, and 1.0D-05 maximum.
          Secondary convergence is 1.0D-12 RMS, and 1.0D-12 maximum.
          NewPWx=T KeepS1=F KeepF1=F KeepIn=T MapXYZ=F SortEE=F KeepMc=T.
          MDV=    4026531806 using IRadAn=       2.
 Generate precomputed XC quadrature information.
          Keep R1 and R2 ints in memory in canonical form, NReq=2870547.
 Symmetry not used in FoFDir.
 MinBra= 0 MaxBra= 2 Meth= 1.
 IRaf=       0 NMat=   1 IRICut=       1 DoRegI=T DoRafI=F ISym2E= 0 JSym2E=0.
          Solving linear equations simultaneously, MaxMat=       0.
          There are    12 degrees of freedom in the 1st order CPHF.  IDoFFX=5.
      6 vectors produced by pass  0 Test12= 6.02D-11 8.33D-07 XBig12= 2.32D-01 1.72D-01.
 AX will form     6 AO Fock derivatives at one time.
      6 vectors produced by pass  1 Test12= 6.02D-11 8.33D-07 XBig12= 7.86D-02 1.61D-01.
      6 vectors produced by pass  2 Test12= 6.02D-11 8.33D-07 XBig12= 2.14D-03 2.41D-02.
      6 vectors produced by pass  3 Test12= 6.02D-11 8.33D-07 XBig12= 6.74D-05 1.98D-03.
      6 vectors produced by pass  4 Test12= 6.02D-11 8.33D-07 XBig12= 1.28D-06 3.23D-04.
      6 vectors produced by pass  5 Test12= 6.02D-11 8.33D-07 XBig12= 3.12D-08 5.54D-05.
      3 vectors produced by pass  6 Test12= 6.02D-11 8.33D-07 XBig12= 5.63D-10 7.51D-06.
 Inverted reduced A of dimension    39 with in-core refinement.
 End of Minotr Frequency-dependent properties file   721 does not exist.
 End of Minotr Frequency-dependent properties file   722 does not exist.
 Leave Link 1002 at Fri Feb  7 01:52:23 2014, MaxMem= 4026531840 cpu:       3.2
 (Enter /usr/caen/gaussian-09revc/g09/l601.exe)
 Copying SCF densities to generalized density rwf, IOpCl= 1 IROHF=0.

 **********************************************************************

            Population analysis using the SCF density.

 **********************************************************************

 Orbital symmetries:
 Alpha Orbitals:
       Occupied  (A') (A') (A') (A') (A') (A") (A') (A") (A')
       Virtual   (A') (A') (A') (A") (A') (A') (A') (A") (A') (A')
                 (A') (A') (A") (A') (A') (A') (A") (A') (A') (A")
                 (A') (A') (A') (A") (A') (A') (A') (A") (A') (A")
                 (A") (A') (A') (A') (A') (A") (A') (A") (A') (A')
                 (A') (A')
 Beta  Orbitals:
       Occupied  (A') (A') (A') (A') (A') (A') (A") (A')
       Virtual   (A") (A') (A') (A') (A") (A') (A') (A') (A') (A")
                 (A') (A') (A') (A') (A') (A") (A') (A') (A") (A')
                 (A") (A') (A') (A') (A") (A') (A') (A') (A") (A')
                 (A") (A") (A') (A') (A') (A') (A") (A') (A") (A')
                 (A') (A') (A')
 The electronic state is 2-A".
 Alpha  occ. eigenvalues --  -19.25979 -19.22286  -1.22225  -0.89505  -0.58451
 Alpha  occ. eigenvalues --   -0.51293  -0.49544  -0.31929  -0.31326
 Alpha virt. eigenvalues --   -0.02599   0.04904   0.10855   0.12914   0.14889
 Alpha virt. eigenvalues --    0.16703   0.19067   0.20176   0.20319   0.22667
 Alpha virt. eigenvalues --    0.32967   0.48885   0.93005   0.93135   0.95221
 Alpha virt. eigenvalues --    0.97593   1.00495   1.04400   1.28679   1.29892
 Alpha virt. eigenvalues --    1.42061   1.53753   1.96394   2.34934   2.40004
 Alpha virt. eigenvalues --    2.56445   2.64581   2.71689   2.77043   3.02200
 Alpha virt. eigenvalues --    3.25495   3.37696   3.67958   3.80786   4.72640
 Alpha virt. eigenvalues --    4.74708   4.89112   4.92069   5.32133   5.95059
 Alpha virt. eigenvalues --   49.70680  49.73136
  Beta  occ. eigenvalues --  -19.25094 -19.20195  -1.19491  -0.85442  -0.56753
  Beta  occ. eigenvalues --   -0.48019  -0.43375  -0.29391
  Beta virt. eigenvalues --   -0.13765  -0.02407   0.06059   0.10986   0.13682
  Beta virt. eigenvalues --    0.15131   0.17743   0.19150   0.20578   0.21425
  Beta virt. eigenvalues --    0.22786   0.33296   0.49083   0.93573   0.95635
  Beta virt. eigenvalues --    0.96098   0.98433   1.05151   1.05230   1.29645
  Beta virt. eigenvalues --    1.30489   1.43362   1.54804   1.96722   2.38955
  Beta virt. eigenvalues --    2.40906   2.57440   2.66734   2.77657   2.83377
  Beta virt. eigenvalues --    3.04983   3.30345   3.38689   3.69782   3.82003
  Beta virt. eigenvalues --    4.73642   4.80362   4.90767   4.99086   5.33030
  Beta virt. eigenvalues --    5.96508  49.72336  49.74456
          Condensed to atoms (all electrons):
              1          2          3
     1  O    7.775820   0.235220   0.115828
     2  H    0.235220   0.546041  -0.049226
     3  O    0.115828  -0.049226   8.074495
 Mulliken atomic charges:
              1
     1  O   -0.126868
     2  H    0.267965
     3  O   -0.141097
 Sum of Mulliken atomic charges =   0.00000
 Mulliken charges with hydrogens summed into heavy atoms:
              1
     1  O    0.141097
     3  O   -0.141097
 Sum of Mulliken charges with hydrogens summed into heavy atoms =   0.00000
          Atomic-Atomic Spin Densities.
              1          2          3
     1  O    0.416782   0.004543  -0.149800
     2  H    0.004543  -0.015287   0.000990
     3  O   -0.149800   0.000990   0.887039
 Mulliken atomic spin densities:
              1
     1  O    0.271525
     2  H   -0.009754
     3  O    0.738229
 Sum of Mulliken atomic spin densities =   1.00000
 APT atomic charges:
              1
     1  O   -0.321188
     2  H    0.503604
     3  O   -0.182416
 Sum of APT charges=   0.00000
 APT Atomic charges with hydrogens summed into heavy atoms:
              1
     1  O    0.182416
     2  H    0.000000
     3  O   -0.182416
 Sum of APT charges=   0.00000
 Electronic spatial extent (au):  <R**2>=             54.9805
 Charge=              0.0000 electrons
 Dipole moment (field-independent basis, Debye):
    X=             -1.8220    Y=             -1.5599    Z=              0.0000  Tot=              2.3986
 Quadrupole moment (field-independent basis, Debye-Ang):
   XX=            -10.2464   YY=            -11.0763   ZZ=            -11.1039
   XY=              1.8332   XZ=              0.0000   YZ=              0.0000
 Traceless Quadrupole moment (field-independent basis, Debye-Ang):
   XX=              0.5625   YY=             -0.2674   ZZ=             -0.2950
   XY=              1.8332   XZ=              0.0000   YZ=              0.0000
 Octapole moment (field-independent basis, Debye-Ang**2):
  XXX=             -2.0811  YYY=             -2.2229  ZZZ=              0.0000  XYY=             -1.9901
  XXY=             -2.0854  XXZ=              0.0000  XZZ=             -0.2646  YZZ=              0.0247
  YYZ=              0.0000  XYZ=              0.0000
 Hexadecapole moment (field-independent basis, Debye-Ang**3):
 XXXX=            -10.0364 YYYY=            -37.3795 ZZZZ=             -8.6136 XXXY=              0.2684
 XXXZ=              0.0000 YYYX=              0.9154 YYYZ=              0.0000 ZZZX=              0.0000
 ZZZY=              0.0000 XXYY=             -7.9974 XXZZ=             -3.3205 YYZZ=             -8.2269
 XXYZ=              0.0000 YYXZ=              0.0000 ZZXY=             -0.2325
 N-N= 3.232651799729D+01 E-N=-6.262385900451D+02  KE= 2.242938266868D+02
 Symmetry A'   KE= 2.147313709764D+02
 Symmetry A"   KE= 9.562455710331D+00
  Exact polarizability:   0.000   0.000   0.000   0.000   0.000   0.000
 Approx polarizability:  10.100   2.157  24.329   0.000   0.000   7.660
                          Isotropic Fermi Contact Couplings
        Atom                 a.u.       MegaHertz       Gauss      10(-4) cm-1
     1  O(17)              0.03481     -21.10344      -7.53023      -7.03935
     2  H(1)              -0.00580     -25.92938      -9.25225      -8.64911
     3  O(17)              0.05584     -33.84717     -12.07751     -11.29020
 --------------------------------------------------------
       Center         ----  Spin Dipole Couplings  ----
                      3XX-RR        3YY-RR        3ZZ-RR
 --------------------------------------------------------
     1   Atom       -0.723755     -0.756144      1.479899
     2   Atom        0.044037     -0.018708     -0.025328
     3   Atom       -1.621241     -1.647102      3.268343
 --------------------------------------------------------
                        XY            XZ            YZ
 --------------------------------------------------------
     1   Atom        0.027017      0.000000      0.000000
     2   Atom        0.046875      0.000000      0.000000
     3   Atom       -0.007783      0.000000      0.000000
 --------------------------------------------------------


 ---------------------------------------------------------------------------------
              Anisotropic Spin Dipole Couplings in Principal Axis System
 ---------------------------------------------------------------------------------

       Atom             a.u.   MegaHertz   Gauss  10(-4) cm-1        Axes

              Baa    -0.7714    55.821    19.918    18.620 -0.4929  0.8701  0.0000
     1 O(17)  Bbb    -0.7085    51.263    18.292    17.099  0.8701  0.4929  0.0000
              Bcc     1.4799  -107.084   -38.210   -35.720  0.0000  0.0000  1.0000
 
              Baa    -0.0437   -23.338    -8.328    -7.785 -0.4711  0.8821  0.0000
     2 H(1)   Bbb    -0.0253   -13.514    -4.822    -4.508  0.0000  0.0000  1.0000
              Bcc     0.0691    36.852    13.150    12.292  0.8821  0.4711  0.0000
 
              Baa    -1.6493   119.340    42.583    39.807  0.2676  0.9635  0.0000
     3 O(17)  Bbb    -1.6191   117.155    41.804    39.079  0.9635 -0.2676  0.0000
              Bcc     3.2683  -236.495   -84.387   -78.886  0.0000  0.0000  1.0000
 

 ---------------------------------------------------------------------------------

 No NMR shielding tensors so no spin-rotation constants.
 Leave Link  601 at Fri Feb  7 01:52:23 2014, MaxMem= 4026531840 cpu:       2.0
 (Enter /usr/caen/gaussian-09revc/g09/l701.exe)
 Compute integral second derivatives.
 ... and contract with generalized density number  0.
 Leave Link  701 at Fri Feb  7 01:52:23 2014, MaxMem= 4026531840 cpu:       2.2
 (Enter /usr/caen/gaussian-09revc/g09/l702.exe)
 L702 exits ... SP integral derivatives will be done elsewhere.
 Leave Link  702 at Fri Feb  7 01:52:24 2014, MaxMem= 4026531840 cpu:       0.1
 (Enter /usr/caen/gaussian-09revc/g09/l703.exe)
 Compute integral second derivatives, UseDBF=F ICtDFT=           0.
 Integral derivatives from FoFDir, PRISM(SPDF).
 Calling FoFJK, ICntrl=    100147 FMM=F ISym2X=1 I1Cent= 0 IOpClX= 1 NMat=1 NMatS=1 NMatT=0.
 FoFCou: FMM=F IPFlag=           0 FMFlag=      100000 FMFlg1=         800
         NFxFlg=           0 DoJE=F BraDBF=F KetDBF=F FulRan=T
         Omega=  0.000000  0.000000  1.000000  0.000000  0.000000 ICntrl=  100147 IOpCl=  1
         NMat0=    1 NMatS0=    1 NMatT0=    0 NMatD0=    1 NMtDS0=    0 NMtDT0=    0
         I1Cent=           0 NGrid=           0.
 Petite list used in FoFCou.
 Leave Link  703 at Fri Feb  7 01:52:24 2014, MaxMem= 4026531840 cpu:       3.7
 (Enter /usr/caen/gaussian-09revc/g09/l716.exe)
 Dipole        =-7.16847497D-01-6.13702610D-01 0.00000000D+00
 Polarizability= 0.00000000D+00 0.00000000D+00 0.00000000D+00
                 0.00000000D+00 0.00000000D+00 0.00000000D+00
 ***** Axes restored to original set *****
 -------------------------------------------------------------------
 Center     Atomic                   Forces (Hartrees/Bohr)
 Number     Number              X              Y              Z
 -------------------------------------------------------------------
      1        8          -0.004338283   -0.024271576    0.000000000
      2        1           0.001519434    0.018679662    0.000000000
      3        8           0.002818850    0.005591914    0.000000000
 -------------------------------------------------------------------
 Cartesian Forces:  Max     0.024271576 RMS     0.010532405
 Force constants in Cartesian coordinates: 
                1             2             3             4             5 
      1  0.473494D+00
      2 -0.110045D+00  0.557538D+00
      3  0.000000D+00  0.000000D+00 -0.193967D-01
      4 -0.621695D-01  0.916402D-01  0.000000D+00  0.104225D+00
      5  0.130624D+00 -0.500568D+00  0.000000D+00 -0.137222D+00  0.478934D+00
      6  0.000000D+00  0.000000D+00  0.141751D-01  0.000000D+00  0.000000D+00
      7 -0.411325D+00  0.184043D-01  0.000000D+00 -0.420555D-01  0.659839D-02
      8 -0.205793D-01 -0.569707D-01  0.000000D+00  0.455821D-01  0.216338D-01
      9  0.000000D+00  0.000000D+00  0.522165D-02  0.000000D+00  0.000000D+00
                6             7             8             9 
      6 -0.109086D-01
      7  0.000000D+00  0.453380D+00
      8  0.000000D+00 -0.250027D-01  0.353369D-01
      9 -0.326646D-02  0.000000D+00  0.000000D+00 -0.195519D-02
 Force constants in internal coordinates: 
                1             2             3 
      1  0.523570D+00
      2  0.202441D-01  0.453384D+00
      3 -0.127989D-01  0.679199D-01  0.227141D+00
 Leave Link  716 at Fri Feb  7 01:52:24 2014, MaxMem= 4026531840 cpu:       0.2
 (Enter /usr/caen/gaussian-09revc/g09/l103.exe)

 GradGradGradGradGradGradGradGradGradGradGradGradGradGradGradGradGradGrad
 Berny optimization.
 Red2BG is reusing G-inverse.
 Internal  Forces:  Max     0.017105129 RMS     0.012837469
 Search for a local minimum.
 Step number   1 out of a maximum of   20
 All quantities printed in internal units (Hartrees-Bohrs-Radians)
 RMS Force = .12837D-01 SwitMx=.10000D-02 MixMth= 1
 Mixed Optimization -- RFO/linear search
 Second derivative matrix not updated -- analytic derivatives used.
 The second derivative matrix:
                          R1        R2        A1
           R1           0.52357
           R2           0.02024   0.45338
           A1          -0.01280   0.06792   0.22714
 ITU=  0
     Eigenvalues ---    0.20732   0.46767   0.52910
 RFO step:  Lambda=-1.44533197D-03 EMin= 2.07318877D-01
 Linear search not attempted -- first point.
 Iteration  1 RMS(Cart)=  0.03603039 RMS(Int)=  0.00098904
 Iteration  2 RMS(Cart)=  0.00110253 RMS(Int)=  0.00000034
 Iteration  3 RMS(Cart)=  0.00000029 RMS(Int)=  0.00000000
 ClnCor:  largest displacement from symmetrization is 1.39D-16 for atom     2.
 Variable       Old X    -DE/DX   Delta X   Delta X   Delta X     New X
                                 (Linear)    (Quad)   (Total)
    R1        1.81414   0.01711   0.00000   0.03048   0.03048   1.84462
    R2        2.49444   0.00282   0.00000   0.01431   0.01431   2.50875
    A1        1.91114  -0.01392   0.00000  -0.06346  -0.06346   1.84768
         Item               Value     Threshold  Converged?
 Maximum Force            0.017105     0.000450     NO 
 RMS     Force            0.012837     0.000300     NO 
 Maximum Displacement     0.038272     0.001800     NO 
 RMS     Displacement     0.036553     0.001200     NO 
 Predicted change in Energy=-7.263957D-04
 GradGradGradGradGradGradGradGradGradGradGradGradGradGradGradGradGradGrad

[...]
     3  O    0.115073  -0.051341   8.082517
 Mulliken atomic charges:
              1
     1  O   -0.121114
     2  H    0.267364
     3  O   -0.146250
 Sum of Mulliken atomic charges =   0.00000
 Mulliken charges with hydrogens summed into heavy atoms:
              1
     1  O    0.146250
     3  O   -0.146250
 Sum of Mulliken charges with hydrogens summed into heavy atoms =   0.00000
          Atomic-Atomic Spin Densities.
              1          2          3
     1  O    0.412630   0.003458  -0.146161
     2  H    0.003458  -0.015116   0.001209
     3  O   -0.146161   0.001209   0.885474
 Mulliken atomic spin densities:
              1
     1  O    0.269927
     2  H   -0.010449
     3  O    0.740522
 Sum of Mulliken atomic spin densities =   1.00000
 APT atomic charges:
              1
     1  O   -0.250274
     2  H    0.265585
     3  O   -0.015311
 Sum of APT charges=   0.00000
 APT Atomic charges with hydrogens summed into heavy atoms:
              1
     1  O    0.015311
     2  H    0.000000
     3  O   -0.015311
 Sum of APT charges=   0.00000
 Electronic spatial extent (au):  <R**2>=             55.2677
 Charge=              0.0000 electrons
 Dipole moment (field-independent basis, Debye):
    X=             -1.8550    Y=             -1.4919    Z=              0.0000  Tot=              2.3805
 Quadrupole moment (field-independent basis, Debye-Ang):
   XX=            -10.1292   YY=            -11.2724   ZZ=            -11.1323
   XY=              1.7591   XZ=              0.0000   YZ=              0.0000
 Traceless Quadrupole moment (field-independent basis, Debye-Ang):
   XX=              0.7154   YY=             -0.4278   ZZ=             -0.2877
   XY=              1.7591   XZ=              0.0000   YZ=              0.0000
 Octapole moment (field-independent basis, Debye-Ang**2):
  XXX=             -2.2400  YYY=             -1.9390  ZZZ=              0.0000  XYY=             -1.8720
  XXY=             -2.1262  XXZ=              0.0000  XZZ=             -0.2601  YZZ=              0.0463
  YYZ=              0.0000  XYZ=              0.0000
 Hexadecapole moment (field-independent basis, Debye-Ang**3):
 XXXX=             -9.9952 YYYY=            -37.9003 ZZZZ=             -8.6523 XXXY=              0.2876
 XXXZ=              0.0000 YYYX=              0.6611 YYYZ=              0.0000 ZZZX=              0.0000
 ZZZY=              0.0000 XXYY=             -8.1069 XXZZ=             -3.3579 YYZZ=             -8.2712
 XXYZ=              0.0000 YYXZ=              0.0000 ZZXY=             -0.2480
 N-N= 3.211934551369D+01 E-N=-6.256098208909D+02  KE= 2.242403699991D+02
 Symmetry A'   KE= 2.146800061130D+02
 Symmetry A"   KE= 9.560363886062D+00
  Exact polarizability:   8.972   1.639  16.800   0.000   0.000   6.992
 Approx polarizability:  10.526   1.979  24.544   0.000   0.000   7.737
                          Isotropic Fermi Contact Couplings
        Atom                 a.u.       MegaHertz       Gauss      10(-4) cm-1
     1  O(17)              0.03450     -20.91116      -7.46162      -6.97521
     2  H(1)              -0.00574     -25.66886      -9.15929      -8.56221
     3  O(17)              0.05503     -33.35949     -11.90349     -11.12753
 --------------------------------------------------------
       Center         ----  Spin Dipole Couplings  ----
                      3XX-RR        3YY-RR        3ZZ-RR
 --------------------------------------------------------
     1   Atom       -0.716287     -0.757926      1.474213
     2   Atom        0.046721     -0.020247     -0.026474
     3   Atom       -1.626006     -1.647616      3.273622
 --------------------------------------------------------
                        XY            XZ            YZ
 --------------------------------------------------------
     1   Atom        0.025108      0.000000      0.000000
     2   Atom        0.041204      0.000000      0.000000
     3   Atom       -0.007834      0.000000      0.000000
 --------------------------------------------------------


 ---------------------------------------------------------------------------------
              Anisotropic Spin Dipole Couplings in Principal Axis System
 ---------------------------------------------------------------------------------

       Atom             a.u.   MegaHertz   Gauss  10(-4) cm-1        Axes

              Baa    -0.7697    55.697    19.874    18.578 -0.4253  0.9051  0.0000
     1 O(17)  Bbb    -0.7045    50.976    18.190    17.004  0.9051  0.4253  0.0000
              Bcc     1.4742  -106.673   -38.064   -35.582  0.0000  0.0000  1.0000
 
              Baa    -0.0399   -21.266    -7.588    -7.094 -0.4297  0.9030  0.0000
     2 H(1)   Bbb    -0.0265   -14.125    -5.040    -4.712  0.0000  0.0000  1.0000
              Bcc     0.0663    35.391    12.628    11.805  0.9030  0.4297  0.0000
 
              Baa    -1.6502   119.404    42.606    39.829  0.3086  0.9512  0.0000
     3 O(17)  Bbb    -1.6235   117.473    41.917    39.185  0.9512 -0.3086  0.0000
              Bcc     3.2736  -236.877   -84.524   -79.014  0.0000  0.0000  1.0000
 

 ---------------------------------------------------------------------------------

 No NMR shielding tensors so no spin-rotation constants.
 Leave Link  601 at Fri Feb  7 01:52:34 2014, MaxMem= 4026531840 cpu:       1.6
 (Enter /usr/caen/gaussian-09revc/g09/l701.exe)
 Compute integral second derivatives.
 ... and contract with generalized density number  0.
 Leave Link  701 at Fri Feb  7 01:52:34 2014, MaxMem= 4026531840 cpu:       1.1
 (Enter /usr/caen/gaussian-09revc/g09/l702.exe)
 L702 exits ... SP integral derivatives will be done elsewhere.
 Leave Link  702 at Fri Feb  7 01:52:34 2014, MaxMem= 4026531840 cpu:       0.1
 (Enter /usr/caen/gaussian-09revc/g09/l703.exe)
 Compute integral second derivatives, UseDBF=F ICtDFT=           0.
 Integral derivatives from FoFDir, PRISM(SPDF).
 Calling FoFJK, ICntrl=    100127 FMM=F ISym2X=1 I1Cent= 0 IOpClX= 1 NMat=1 NMatS=1 NMatT=0.
 FoFCou: FMM=F IPFlag=           0 FMFlag=      100000 FMFlg1=         800
         NFxFlg=           0 DoJE=F BraDBF=F KetDBF=F FulRan=T
         Omega=  0.000000  0.000000  1.000000  0.000000  0.000000 ICntrl=  100127 IOpCl=  1
         NMat0=    1 NMatS0=    1 NMatT0=    0 NMatD0=    1 NMtDS0=    0 NMtDT0=    0
         I1Cent=           0 NGrid=           0.
 Petite list used in FoFCou.
 Leave Link  703 at Fri Feb  7 01:52:35 2014, MaxMem= 4026531840 cpu:       4.2
 (Enter /usr/caen/gaussian-09revc/g09/l716.exe)
 Dipole        =-7.29802333D-01-5.86976433D-01 0.00000000D+00
 Polarizability= 8.97170212D+00 1.63925843D+00 1.68004664D+01
                -6.64010990D-10-8.63179265D-09 6.99182432D+00
 Full mass-weighted force constant matrix:
 Low frequencies ---  -42.5431  -17.2649  -12.9644   -0.0005    0.0008    0.0011
 Low frequencies --- 1155.8166 1422.3670 3601.9086
 Harmonic frequencies (cm**-1), IR intensities (KM/Mole), Raman scattering
 activities (A**4/AMU), depolarization ratios for plane and unpolarized
 incident light, reduced masses (AMU), force constants (mDyne/A),
 and normal coordinates:
                     1                      2                      3
                    A'                     A'                     A'
 Frequencies --  1155.8166              1422.3670              3601.9086
 Red. masses --    12.3709                 1.1410                 1.0689
 Frc consts  --     9.7371                 1.3601                 8.1708
 IR Inten    --    28.9524                29.9252                26.5719
  Atom  AN      X      Y      Z        X      Y      Z        X      Y      Z
     1   8    -0.04   0.63   0.00     0.06   0.00   0.00     0.06   0.01   0.00
     2   1     0.20  -0.45   0.00    -0.19   0.98   0.00    -0.97  -0.24   0.00
     3   8     0.02  -0.60   0.00    -0.05  -0.06   0.00     0.00   0.00   0.00

 -------------------
 - Thermochemistry -
 -------------------
 Temperature   298.150 Kelvin.  Pressure   1.00000 Atm.
 Atom     1 has atomic number  8 and mass  15.99491
 Atom     2 has atomic number  1 and mass   1.00783
 Atom     3 has atomic number  8 and mass  15.99491
 Molecular mass:    32.99765 amu.
 Principal axes and moments of inertia in atomic units:
                           1         2         3
     Eigenvalues --     2.89703  53.58748  56.48451
           X            0.06034   0.99818   0.00000
           Y            0.99818  -0.06034   0.00000
           Z            0.00000   0.00000   1.00000
 This molecule is an asymmetric top.
 Rotational symmetry number  1.
 Rotational temperatures (Kelvin)     29.89748     1.61631     1.53341
 Rotational constants (GHZ):         622.96316    33.67841    31.95108
 Zero-point vibrational energy      36965.2 (Joules/Mol)
                                    8.83489 (Kcal/Mol)
 Vibrational temperatures:   1662.96  2046.47  5182.34
          (Kelvin)
 
 Zero-point correction=                           0.014079 (Hartree/Particle)
 Thermal correction to Energy=                    0.016939
 Thermal correction to Enthalpy=                  0.017883
 Thermal correction to Gibbs Free Energy=        -0.008098
 Sum of electronic and zero-point Energies=           -150.943987
 Sum of electronic and thermal Energies=              -150.941127
 Sum of electronic and thermal Enthalpies=            -150.940183
 Sum of electronic and thermal Free Energies=         -150.966164
 
                     E (Thermal)             CV                S
                      KCal/Mol        Cal/Mol-Kelvin    Cal/Mol-Kelvin
 Total                   10.629              6.295             54.680
 Electronic               0.000              0.000              1.377
 Translational            0.889              2.981             36.413
 Rotational               0.889              2.981             16.824
 Vibrational              8.852              0.334              0.066
                       Q            Log10(Q)             Ln(Q)
 Total Bot       0.530420D+04          3.724620          8.576255
 Total V=0       0.158719D+11         10.200628         23.487815
 Vib (Bot)       0.335808D-06         -6.473909        -14.906726
 Vib (V=0)       0.100485D+01          0.002099          0.004834
 Electronic      0.200000D+01          0.301030          0.693147
 Translational   0.745040D+07          6.872180         15.823779
 Rotational      0.106003D+04          3.025319          6.966055
 
                                                        optimization and freq
                                                             IR Spectrum
 
     3                                                                            1         1                                        
     6                                                                            4         1                                        
     0                                                                            2         5                                        
     2                                                                            2         6                                        
 
     X                                                                            X         X                                        
     X                                                                            X         X                                        
     X                                                                            X         X                                        
     X                                                                            X         X                                        
     X                                                                            X         X                                        
     X                                                                            X         X                                        
     X                                                                            X         X                                        
     X                                                                            X         X                                        
     X                                                                            X         X                                        
     X                                                                            X         X                                        
     X                                                                            X         X                                        
     X                                                                            X         X                                        
     X                                                                            X         X                                        
     X                                                                            X         X                                        
     X                                                                            X         X                                        
     X                                                                            X         X                                        
     X                                                                            X         X                                        
     X                                                                            X         X                                        
                                                                                  X         X                                        
                                                                                  X                                                  
 
 ***** Axes restored to original set *****
 -------------------------------------------------------------------
 Center     Atomic                   Forces (Hartrees/Bohr)
 Number     Number              X              Y              Z
 -------------------------------------------------------------------
      1        8           0.000020980   -0.000054302    0.000000000
      2        1          -0.000026587    0.000049150    0.000000000
      3        8           0.000005608    0.000005152    0.000000000
 -------------------------------------------------------------------
 Cartesian Forces:  Max     0.000054302 RMS     0.000027017
 Force constants in Cartesian coordinates: 
                1             2             3             4             5 
      1  0.440054D+00
      2 -0.766570D-01  0.511164D+00
      3  0.000000D+00  0.000000D+00 -0.102592D-03
      4 -0.508248D-01  0.610865D-01  0.000000D+00  0.991059D-01
      5  0.100357D+00 -0.454798D+00  0.000000D+00 -0.106215D+00  0.434062D+00
      6  0.000000D+00  0.000000D+00  0.577126D-04  0.000000D+00  0.000000D+00
      7 -0.389230D+00  0.155704D-01  0.000000D+00 -0.482810D-01  0.585823D-02
      8 -0.237002D-01 -0.563655D-01  0.000000D+00  0.451289D-01  0.207364D-01
      9  0.000000D+00  0.000000D+00  0.448790D-04  0.000000D+00  0.000000D+00
                6             7             8             9 
      6 -0.656477D-04
      7  0.000000D+00  0.437511D+00
      8  0.000000D+00 -0.214286D-01  0.356291D-01
      9  0.793507D-05  0.000000D+00  0.000000D+00 -0.528141D-04
 Force constants in internal coordinates: 
                1             2             3 
      1  0.464759D+00
      2  0.201297D-01  0.436146D+00
      3 -0.145878D-01  0.795061D-01  0.233338D+00
 Leave Link  716 at Fri Feb  7 01:52:35 2014, MaxMem= 4026531840 cpu:       0.5
 (Enter /usr/caen/gaussian-09revc/g09/l103.exe)

 GradGradGradGradGradGradGradGradGradGradGradGradGradGradGradGradGradGrad
 Berny optimization.
 Red2BG is reusing G-inverse.
 Internal  Forces:  Max     0.000058402 RMS     0.000034073
 Search for a local minimum.
 Step number   1 out of a maximum of    2
 All quantities printed in internal units (Hartrees-Bohrs-Radians)
 Second derivative matrix not updated -- analytic derivatives used.
 The second derivative matrix:
                          R1        R2        A1
           R1           0.46476
           R2           0.02013   0.43615
           A1          -0.01459   0.07951   0.23334
 ITU=  0
     Eigenvalues ---    0.20429   0.45069   0.47927
 Angle between quadratic step and forces=  12.84 degrees.
 Linear search not attempted -- first point.
 Iteration  1 RMS(Cart)=  0.00007007 RMS(Int)=  0.00000000
 Iteration  2 RMS(Cart)=  0.00000000 RMS(Int)=  0.00000000
 ClnCor:  largest displacement from symmetrization is 8.33D-17 for atom     2.
 Variable       Old X    -DE/DX   Delta X   Delta X   Delta X     New X
                                 (Linear)    (Quad)   (Total)
    R1        1.84628   0.00006   0.00000   0.00013   0.00013   1.84641
    R2        2.50982   0.00000   0.00000  -0.00001  -0.00001   2.50982
    A1        1.84769   0.00001   0.00000   0.00004   0.00004   1.84774
         Item               Value     Threshold  Converged?
 Maximum Force            0.000058     0.000450     YES
 RMS     Force            0.000034     0.000300     YES
 Maximum Displacement     0.000073     0.001800     YES
 RMS     Displacement     0.000070     0.001200     YES
 Predicted change in Energy=-3.881971D-09
 Optimization completed.
    -- Stationary point found.
                           ----------------------------
                           !   Optimized Parameters   !
                           ! (Angstroms and Degrees)  !
 --------------------------                            --------------------------
 ! Name  Definition              Value          Derivative Info.                !
 --------------------------------------------------------------------------------
 ! R1    R(1,2)                  0.977          -DE/DX =    0.0001              !
 ! R2    R(1,3)                  1.3281         -DE/DX =    0.0                 !
 ! A1    A(2,1,3)              105.8651         -DE/DX =    0.0                 !
 --------------------------------------------------------------------------------
 GradGradGradGradGradGradGradGradGradGradGradGradGradGradGradGradGradGrad

 Leave Link  103 at Fri Feb  7 01:52:35 2014, MaxMem= 4026531840 cpu:       2.1
 (Enter /usr/caen/gaussian-09revc/g09/l9999.exe)
 1\1\GINC-NYX5834\Freq\UB3LYP\6-311++G(d,p)\H1O2(2)\HETANJIN\07-Feb-201
 4\0\\#P Geom=AllCheck Guess=TCheck SCRF=Check GenChk UB3LYP/6-311++G(d
 ,p) Freq\\optimization and freq\\0,2\O,0.1743727432,-0.7233278945,1.76
 932155\H,-0.1166744228,0.209325469,1.76932155\O,1.5020788795,-0.689345
 3145,1.76932155\\Version=EM64L-G09RevC.01\State=2-A"\HF=-150.9580661\S
 2=0.753744\S2-1=0.\S2A=0.750009\RMSD=1.286e-09\RMSF=2.702e-05\ZeroPoin
 t=0.0140793\Thermal=0.0169386\Dipole=-0.6054574,0.7145447,0.\DipoleDer
 iv=-0.5217323,-0.0765685,0.,0.1242787,0.0306262,0.,0.,0.,-0.2597146,0.
 2206527,0.0108832,0.,-0.0017669,0.1651794,0.,0.,0.,0.4109215,0.3010796
 ,0.0656853,0.,-0.1225118,-0.1958056,0.,0.,0.,-0.1512068\Polar=16.87919
 96,-1.4368664,8.8929688,0.,0.,6.9918243\PG=CS [SG(H1O2)]\NImag=0\\0.44
 005439,-0.07665695,0.51116376,0.,0.,-0.00010259,-0.05082482,0.06108654
 ,0.,0.09910586,0.10035720,-0.45479828,0.,-0.10621542,0.43406185,0.,0.,
 0.00005771,0.,0.,-0.00006565,-0.38922957,0.01557042,0.,-0.04828105,0.0
 0585823,0.,0.43751062,-0.02370024,-0.05636548,0.,0.04512889,0.02073643
 ,0.,-0.02142864,0.03562905,0.,0.,0.00004488,0.,0.,0.00000794,0.,0.,-0.
 00005281\\-0.00002098,0.00005430,0.,0.00002659,-0.00004915,0.,-0.00000
 561,-0.00000515,0.\\\@


       THE DEATH-KNELL OF THE ATOM

 SO THE ATOMS IN TURN, WE NOW CLEARLY DISCERN,
 FLY TO BITS WITH THE UTMOST FACILITY;
 THEY WEND ON THEIR WAY, AND, IN SPLITTING, DISPLAY
 AN ABSOLUTE LACK OF STABILITY.

          SIR WM. RAMSAY, 1905
 Job cpu time:  0 days  0 hours  0 minutes 30.5 seconds.
 File lengths (MBytes):  RWF=      5 Int=      0 D2E=      0 Chk=      1 Scr=      1
 Normal termination of Gaussian 09 at Fri Feb  7 01:52:36 2014.
