 Entering Gaussian System, Link 0=g09
 Initial command:
 /usr/caen/gaussian-09revc/g09/l1.exe /scratch/avioli_flux/hetanjin/scratch/Gau-25561.inp -scrdir=/scratch/avioli_flux/hetanjin/scratch/
 Entering Link 1 = /usr/caen/gaussian-09revc/g09/l1.exe PID=     25562.
  
 Copyright (c) 1988,1990,1992,1993,1995,1998,2003,2009,2011,
            Gaussian, Inc.  All Rights Reserved.
  
 This is part of the Gaussian(R) 09 program.  It is based on
 the Gaussian(R) 03 system (copyright 2003, Gaussian, Inc.),
 the Gaussian(R) 98 system (copyright 1998, Gaussian, Inc.),
 the Gaussian(R) 94 system (copyright 1995, Gaussian, Inc.),
 the Gaussian 92(TM) system (copyright 1992, Gaussian, Inc.),
 the Gaussian 90(TM) system (copyright 1990, Gaussian, Inc.),
 the Gaussian 88(TM) system (copyright 1988, Gaussian, Inc.),
 the Gaussian 86(TM) system (copyright 1986, Carnegie Mellon
 University), and the Gaussian 82(TM) system (copyright 1983,
 Carnegie Mellon University). Gaussian is a federally registered
 trademark of Gaussian, Inc.
  
 This software contains proprietary and confidential information,
 including trade secrets, belonging to Gaussian, Inc.
  
 This software is provided under written license and may be
 used, copied, transmitted, or stored only in accord with that
 written license.
  
 The following legend is applicable only to US Government
 contracts under FAR:
  
                    RESTRICTED RIGHTS LEGEND
  
 Use, reproduction and disclosure by the US Government is
 subject to restrictions as set forth in subparagraphs (a)
 and (c) of the Commercial Computer Software - Restricted
 Rights clause in FAR 52.227-19.
  
 Gaussian, Inc.
 340 Quinnipiac St., Bldg. 40, Wallingford CT 06492
  
  
 ---------------------------------------------------------------
 Warning -- This program may not be used in any manner that
 competes with the business of Gaussian, Inc. or will provide
 assistance to any competitor of Gaussian, Inc.  The licensee
 of this program is prohibited from giving any competitor of
 Gaussian, Inc. access to this program.  By using this program,
 the user acknowledges that Gaussian, Inc. is engaged in the
 business of creating and licensing software in the field of
 computational chemistry and represents and warrants to the
 licensee that it is not a competitor of Gaussian, Inc. and that
 it will not use this program in any manner prohibited above.
 ---------------------------------------------------------------
  

 Cite this work as:
 Gaussian 09, Revision C.01,
 M. J. Frisch, G. W. Trucks, H. B. Schlegel, G. E. Scuseria, 
 M. A. Robb, J. R. Cheeseman, G. Scalmani, V. Barone, B. Mennucci, 
 G. A. Petersson, H. Nakatsuji, M. Caricato, X. Li, H. P. Hratchian, 
 A. F. Izmaylov, J. Bloino, G. Zheng, J. L. Sonnenberg, M. Hada, 
 M. Ehara, K. Toyota, R. Fukuda, J. Hasegawa, M. Ishida, T. Nakajima, 
 Y. Honda, O. Kitao, H. Nakai, T. Vreven, J. A. Montgomery, Jr., 
 J. E. Peralta, F. Ogliaro, M. Bearpark, J. J. Heyd, E. Brothers, 
 K. N. Kudin, V. N. Staroverov, T. Keith, R. Kobayashi, J. Normand, 
 K. Raghavachari, A. Rendell, J. C. Burant, S. S. Iyengar, J. Tomasi, 
 M. Cossi, N. Rega, J. M. Millam, M. Klene, J. E. Knox, J. B. Cross, 
 V. Bakken, C. Adamo, J. Jaramillo, R. Gomperts, R. E. Stratmann, 
 O. Yazyev, A. J. Austin, R. Cammi, C. Pomelli, J. W. Ochterski, 
 R. L. Martin, K. Morokuma, V. G. Zakrzewski, G. A. Voth, 
 P. Salvador, J. J. Dannenberg, S. Dapprich, A. D. Daniels, 
 O. Farkas, J. B. Foresman, J. V. Ortiz, J. Cioslowski, 
 and D. J. Fox, Gaussian, Inc., Wallingford CT, 2010.
 
 ******************************************
 Gaussian 09:  EM64L-G09RevC.01 23-Sep-2011
                13-Feb-2014 
 ******************************************
 %mem=30GB
 %nprocshared=8
 Will use up to    8 processors via shared memory.
 %chk=TS_1_1e.chk
 ----------------------------
 #p freq ub3lyp/6-311++g(d,p)
 ----------------------------
 1/10=4,30=1,38=1/1,3;
 2/12=2,17=6,18=5,40=1/2;
 3/5=4,6=6,7=1111,11=2,16=1,25=1,30=1,71=2,74=-5,116=2/1,2,3;
 4//1;
 5/5=2,38=5,98=1/2;
 8/6=4,10=90,11=11/1;
 11/6=1,8=1,9=11,15=111,16=1/1,2,10;
 10/6=1/2;
 6/7=2,8=2,9=2,10=2,18=1,28=1/1;
 7/8=1,10=1,25=1/1,2,3,16;
 1/10=4,30=1/3;
 99//99;
 Leave Link    1 at Thu Feb 13 23:38:16 2014, MaxMem= 4026531840 cpu:       0.6
 (Enter /usr/caen/gaussian-09revc/g09/l101.exe)
 -----------------------------------------------
 TS_1_1e using B3LYP/6-311++g(d,p) to clac. freq
 -----------------------------------------------
 Charge =  0 Multiplicity = 2
 Symbolic Z-Matrix:
 C                    -3.54254  -1.39942   0.26977 
 H                    -3.39431  -2.30642   0.86191 
 H                    -3.71787  -1.70012  -0.76854 
 H                    -4.45259  -0.91177   0.63285 
 C                    -2.32789  -0.46859   0.37671 
 H                    -2.15001  -0.2657    1.4385 
 C                    -1.04431  -1.11421  -0.19403 
 H                    -1.06297  -2.19245   0.02442 
 H                    -1.03612  -1.02439  -1.28621 
 C                     0.23528  -0.53563   0.38333 
 H                     0.32758  -0.69477   1.46299 
 H                    -0.05231   0.79751   0.38113 
 C                     1.51223  -0.75926  -0.3905 
 H                     1.44052  -0.26     -1.3667 
 H                     1.57899  -1.83602  -0.62072 
 C                     2.81202  -0.33095   0.3161 
 H                     2.83424  -0.83154   1.29406 
 C                     4.0348   -0.80673  -0.48072 
 H                     4.05643  -0.34498  -1.47395 
 H                     4.96514  -0.53926   0.02835 
 H                     4.02808  -1.89239  -0.61765 
 C                    -2.65251   0.87134  -0.31501 
 H                    -3.22223   0.69996  -1.23458 
 H                    -3.23482   1.52337   0.34553 
 C                     2.87597   1.18374   0.5561 
 H                     3.80832   1.45627   1.05925 
 H                     2.8349    1.72998  -0.39214 
 H                     2.04879   1.54061   1.17389 
 O                    -1.50113   1.57584  -0.79418 
 O                    -0.62614   1.82546   0.28508 
 
 NAtoms=     30 NQM=        0 NQMF=       0 NMMI=     30 NMMIF=      0
                NMic=       0 NMicF=      0.
                    Isotopes and Nuclear Properties:
 (Nuclear quadrupole moments (NQMom) in fm**2, nuclear magnetic moments (NMagM)
  in nuclear magnetons)

  Atom         1           2           3           4           5           6           7           8           9          10
 IAtWgt=          12           1           1           1          12           1          12           1           1          12
 AtmWgt=  12.0000000   1.0078250   1.0078250   1.0078250  12.0000000   1.0078250  12.0000000   1.0078250   1.0078250  12.0000000
 NucSpn=           0           1           1           1           0           1           0           1           1           0
 AtZEff=   0.0000000   0.0000000   0.0000000   0.0000000   0.0000000   0.0000000   0.0000000   0.0000000   0.0000000   0.0000000
 NQMom=    0.0000000   0.0000000   0.0000000   0.0000000   0.0000000   0.0000000   0.0000000   0.0000000   0.0000000   0.0000000
 NMagM=    0.0000000   2.7928460   2.7928460   2.7928460   0.0000000   2.7928460   0.0000000   2.7928460   2.7928460   0.0000000

  Atom        11          12          13          14          15          16          17          18          19          20
 IAtWgt=           1           1          12           1           1          12           1          12           1           1
 AtmWgt=   1.0078250   1.0078250  12.0000000   1.0078250   1.0078250  12.0000000   1.0078250  12.0000000   1.0078250   1.0078250
 NucSpn=           1           1           0           1           1           0           1           0           1           1
 AtZEff=   0.0000000   0.0000000   0.0000000   0.0000000   0.0000000   0.0000000   0.0000000   0.0000000   0.0000000   0.0000000
 NQMom=    0.0000000   0.0000000   0.0000000   0.0000000   0.0000000   0.0000000   0.0000000   0.0000000   0.0000000   0.0000000
 NMagM=    2.7928460   2.7928460   0.0000000   2.7928460   2.7928460   0.0000000   2.7928460   0.0000000   2.7928460   2.7928460

  Atom        21          22          23          24          25          26          27          28          29          30
 IAtWgt=           1          12           1           1          12           1           1           1          16          16
 AtmWgt=   1.0078250  12.0000000   1.0078250   1.0078250  12.0000000   1.0078250   1.0078250   1.0078250  15.9949146  15.9949146
 NucSpn=           1           0           1           1           0           1           1           1           0           0
 AtZEff=   0.0000000   0.0000000   0.0000000   0.0000000   0.0000000   0.0000000   0.0000000   0.0000000   0.0000000   0.0000000
 NQMom=    0.0000000   0.0000000   0.0000000   0.0000000   0.0000000   0.0000000   0.0000000   0.0000000   0.0000000   0.0000000
 NMagM=    2.7928460   0.0000000   2.7928460   2.7928460   0.0000000   2.7928460   2.7928460   2.7928460   0.0000000   0.0000000
 Leave Link  101 at Thu Feb 13 23:38:16 2014, MaxMem= 4026531840 cpu:       0.4
 (Enter /usr/caen/gaussian-09revc/g09/l103.exe)

 GradGradGradGradGradGradGradGradGradGradGradGradGradGradGradGradGradGrad
 Berny optimization.
 Initialization pass.
 Trust Radius=3.00D-01 FncErr=1.00D-07 GrdErr=1.00D-07
 Number of steps in this run=      2 maximum allowed number of steps=      2.
 GradGradGradGradGradGradGradGradGradGradGradGradGradGradGradGradGradGrad

 Leave Link  103 at Thu Feb 13 23:38:16 2014, MaxMem= 4026531840 cpu:       0.1
 (Enter /usr/caen/gaussian-09revc/g09/l202.exe)
                          Input orientation:                          
 ---------------------------------------------------------------------
 Center     Atomic      Atomic             Coordinates (Angstroms)
 Number     Number       Type             X           Y           Z
 ---------------------------------------------------------------------
      1          6           0       -3.542540   -1.399421    0.269766
      2          1           0       -3.394307   -2.306415    0.861905
      3          1           0       -3.717868   -1.700120   -0.768542
      4          1           0       -4.452587   -0.911771    0.632853
      5          6           0       -2.327885   -0.468591    0.376713
      6          1           0       -2.150009   -0.265697    1.438503
      7          6           0       -1.044308   -1.114214   -0.194030
      8          1           0       -1.062974   -2.192448    0.024418
      9          1           0       -1.036124   -1.024393   -1.286214
     10          6           0        0.235281   -0.535629    0.383325
     11          1           0        0.327577   -0.694767    1.462991
     12          1           0       -0.052307    0.797509    0.381132
     13          6           0        1.512231   -0.759258   -0.390503
     14          1           0        1.440523   -0.260003   -1.366699
     15          1           0        1.578986   -1.836015   -0.620722
     16          6           0        2.812021   -0.330947    0.316097
     17          1           0        2.834242   -0.831543    1.294061
     18          6           0        4.034796   -0.806728   -0.480718
     19          1           0        4.056431   -0.344984   -1.473949
     20          1           0        4.965142   -0.539256    0.028351
     21          1           0        4.028083   -1.892389   -0.617650
     22          6           0       -2.652513    0.871339   -0.315011
     23          1           0       -3.222227    0.699956   -1.234578
     24          1           0       -3.234823    1.523366    0.345532
     25          6           0        2.875974    1.183738    0.556098
     26          1           0        3.808324    1.456274    1.059248
     27          1           0        2.834902    1.729984   -0.392137
     28          1           0        2.048786    1.540606    1.173891
     29          8           0       -1.501128    1.575835   -0.794182
     30          8           0       -0.626137    1.825462    0.285080
 ---------------------------------------------------------------------
                    Distance matrix (angstroms):
                    1          2          3          4          5
     1  C    0.000000
     2  H    1.093270   0.000000
     3  H    1.095100   1.769362   0.000000
     4  H    1.094450   1.765631   1.767828   0.000000
     5  C    1.534037   2.179510   2.181817   2.185492   0.000000
     6  H    2.142526   2.458714   3.063788   2.523559   1.095538
     7  C    2.556876   2.838809   2.796654   3.512988   1.546010
     8  H    2.614830   2.479816   2.814185   3.674208   2.166978
     9  H    2.973860   3.437881   2.813600   3.920169   2.177817
    10  C    3.876979   4.066772   4.279045   4.709549   2.564051
    11  H    4.110733   4.100138   4.728224   4.856561   2.877957
    12  H    4.125607   4.586333   4.582165   4.727311   2.604090
    13  C    5.137750   5.294935   5.327483   6.053889   3.926780
    14  H    5.367235   5.703513   5.388945   6.257136   4.157390
    15  H    5.216667   5.210864   5.300658   6.229410   4.257742
    16  C    6.443930   6.535969   6.759477   7.294671   5.142106
    17  H    6.483442   6.415359   6.923793   7.317206   5.255551
    18  C    7.637443   7.696965   7.809276   8.560768   6.429093
    19  H    7.867448   8.050896   7.922987   8.784261   6.648287
    20  H    8.554462   8.584757   8.796437   9.444459   7.301684
    21  H    7.638381   7.579734   7.749806   8.628275   6.588952
    22  C    2.508080   3.468935   2.820119   2.705216   1.542491
    23  H    2.602506   3.669212   2.494637   2.756583   2.182111
    24  H    2.939917   3.867725   3.444613   2.737772   2.188927
    25  C    6.924740   7.182695   7.317791   7.622654   5.462831
    26  H    7.925495   8.128632   8.363445   8.604191   6.467149
    27  H    7.134638   7.527827   7.405815   7.819013   5.663853
    28  H    6.381546   6.672643   6.894175   6.969557   4.881354
    29  O    3.761847   4.625864   3.955563   4.115303   2.496838
    30  O    4.348047   5.006785   4.806105   4.717532   2.857800
                    6          7          8          9         10
     6  H    0.000000
     7  C    2.146560   0.000000
     8  H    2.625576   1.100298   0.000000
     9  H    3.039810   1.095902   1.755799   0.000000
    10  C    2.622188   1.518370   2.135259   2.154698   0.000000
    11  H    2.514584   2.191740   2.499234   3.086497   1.095227
    12  H    2.578526   2.229251   3.176246   2.658433   1.363807
    13  C    4.123211   2.588530   2.976218   2.714168   1.509775
    14  H    4.556436   2.877362   3.455003   2.593174   2.142700
    15  H    4.540012   2.754040   2.742846   2.817873   2.122418
    16  C    5.087808   3.967998   4.308811   4.225694   2.585731
    17  H    5.018347   4.163829   4.318836   4.655614   2.769766
    18  C    6.498303   5.096473   5.306849   5.139108   3.905942
    19  H    6.856279   5.314833   5.645045   5.141105   4.252881
    20  H    7.258701   6.040987   6.250699   6.162681   4.743164
    21  H    6.711387   5.149190   5.140151   5.181369   4.150674
    22  C    2.149459   2.558003   3.468233   2.673901   3.287337
    23  H    3.037680   3.019484   3.822754   2.784797   4.012311
    24  H    2.360541   3.470780   4.315937   3.740047   4.035159
    25  C    5.304715   4.605636   5.215039   4.855354   3.155841
    26  H    6.213755   5.632597   6.173620   5.926515   4.146225
    27  H    5.673035   4.814247   5.545487   4.834336   3.534455
    28  H    4.578496   4.299594   4.993999   4.706167   2.867847
    29  O    2.966002   2.793784   3.880985   2.686915   2.976562
    30  O    2.832934   3.007675   4.049984   3.280050   2.515242
                   11         12         13         14         15
    11  H    0.000000
    12  H    1.881919   0.000000
    13  C    2.200683   2.338102   0.000000
    14  H    3.071614   2.530175   1.098798   0.000000
    15  H    2.685206   3.255807   1.103115   1.749133   0.000000
    16  C    2.760470   3.079288   1.540191   2.172059   2.159452
    17  H    2.516071   3.437938   2.142591   3.057573   2.500205
    18  C    4.187363   4.474458   2.524624   2.795375   2.666465
    19  H    4.759445   4.650628   2.796146   2.619484   3.014781
    20  H    4.856890   5.204439   3.485173   3.800932   3.683603
    21  H    4.411021   4.988256   2.768590   3.149798   2.449748
    22  C    3.807219   2.692794   4.473213   4.374806   5.032773
    23  H    4.671535   3.559274   5.025620   4.762375   5.464395
    24  H    4.342755   3.264436   5.318519   5.288762   5.949105
    25  C    3.293260   2.958820   2.555598   2.800367   3.490844
    26  H    4.111640   3.974706   3.504626   3.799646   4.316412
    27  H    3.950645   3.131043   2.818827   2.618036   3.787601
    28  H    2.836024   2.365428   2.832771   3.172818   3.852651
    29  O    3.687089   2.021444   3.833530   3.514454   4.599773
    30  O    2.940850   1.181183   3.421960   3.368772   4.369148
                   16         17         18         19         20
    16  C    0.000000
    17  H    1.098865   0.000000
    18  C    1.535077   2.142845   0.000000
    19  H    2.180142   3.064697   1.095529   0.000000
    20  H    2.182228   2.495634   1.093726   1.766466   0.000000
    21  H    2.188331   2.491042   1.094283   1.768761   1.768153
    22  C    5.630712   5.966020   6.896627   6.916105   7.754763
    23  H    6.315022   6.739460   7.450019   7.357177   8.376374
    24  H    6.324845   6.578667   7.678502   7.743619   8.461350
    25  C    1.534914   2.146553   2.525829   2.802064   2.758958
    26  H    2.176936   2.497615   2.746628   3.118201   2.526483
    27  H    2.179347   3.066706   2.807579   2.639686   3.140730
    28  H    2.195689   2.501694   3.491696   3.820621   3.760747
    29  O    4.844769   5.380675   6.035008   5.919298   6.852942
    30  O    4.058570   4.477939   5.407325   5.452656   6.076200
                   21         22         23         24         25
    21  H    0.000000
    22  C    7.236031   0.000000
    23  H    7.724497   1.095240   0.000000
    24  H    8.083620   1.095692   1.781828   0.000000
    25  C    3.488208   5.605407   6.374058   6.123849   0.000000
    26  H    3.751510   6.631225   7.433862   7.079535   1.093943
    27  H    3.820487   5.554723   6.201570   6.117876   1.095090
    28  H    4.348872   4.976641   5.855851   5.348177   1.092366
    29  O    6.529312   1.432343   1.980731   2.075428   4.597393
    30  O    6.024874   2.318763   3.211823   2.626815   3.570720
                   26         27         28         29         30
    26  H    0.000000
    27  H    1.768894   0.000000
    28  H    1.765284   1.762466   0.000000
    29  O    5.624925   4.357357   4.059118   0.000000
    30  O    4.516645   3.527964   2.833080   1.411641   0.000000
 Stoichiometry    C9H19O2(2)
 Framework group  C1[X(C9H19O2)]
 Deg. of freedom    84
 Full point group                 C1      NOp   1
 Largest Abelian subgroup         C1      NOp   1
 Largest concise Abelian subgroup C1      NOp   1
                         Standard orientation:                         
 ---------------------------------------------------------------------
 Center     Atomic      Atomic             Coordinates (Angstroms)
 Number     Number       Type             X           Y           Z
 ---------------------------------------------------------------------
      1          6           0        3.542540   -1.399421   -0.269766
      2          1           0        3.394307   -2.306415   -0.861905
      3          1           0        3.717868   -1.700120    0.768542
      4          1           0        4.452587   -0.911771   -0.632853
      5          6           0        2.327885   -0.468591   -0.376713
      6          1           0        2.150009   -0.265697   -1.438503
      7          6           0        1.044308   -1.114214    0.194030
      8          1           0        1.062974   -2.192448   -0.024418
      9          1           0        1.036124   -1.024393    1.286214
     10          6           0       -0.235281   -0.535629   -0.383325
     11          1           0       -0.327577   -0.694767   -1.462991
     12          1           0        0.052307    0.797509   -0.381132
     13          6           0       -1.512231   -0.759258    0.390503
     14          1           0       -1.440523   -0.260003    1.366699
     15          1           0       -1.578986   -1.836015    0.620722
     16          6           0       -2.812021   -0.330947   -0.316097
     17          1           0       -2.834242   -0.831543   -1.294061
     18          6           0       -4.034796   -0.806728    0.480718
     19          1           0       -4.056431   -0.344984    1.473949
     20          1           0       -4.965142   -0.539256   -0.028351
     21          1           0       -4.028083   -1.892389    0.617650
     22          6           0        2.652513    0.871339    0.315011
     23          1           0        3.222227    0.699956    1.234578
     24          1           0        3.234823    1.523366   -0.345532
     25          6           0       -2.875974    1.183738   -0.556098
     26          1           0       -3.808324    1.456274   -1.059248
     27          1           0       -2.834902    1.729984    0.392137
     28          1           0       -2.048786    1.540606   -1.173891
     29          8           0        1.501128    1.575835    0.794182
     30          8           0        0.626137    1.825462   -0.285080
 ---------------------------------------------------------------------
 Rotational constants (GHZ):      1.9489469      0.5107633      0.4364900
 Leave Link  202 at Thu Feb 13 23:38:16 2014, MaxMem= 4026531840 cpu:       0.3
 (Enter /usr/caen/gaussian-09revc/g09/l301.exe)
 Standard basis: 6-311++G(d,p) (5D, 7F)
 Ernie: Thresh=  0.10000D-02 Tol=  0.10000D-05 Strict=F.
 There are   375 symmetry adapted basis functions of A   symmetry.
 Integral buffers will be    131072 words long.
 Raffenetti 2 integral format.
 Two-electron integral symmetry is turned on.
   375 basis functions,   567 primitive gaussians,   386 cartesian basis functions
    45 alpha electrons       44 beta electrons
       nuclear repulsion energy       670.2952600923 Hartrees.
 IExCor=  402 DFT=T Ex+Corr=B3LYP ExCW=0 ScaHFX=  0.200000
 ScaDFX=  0.800000  0.720000  1.000000  0.810000 ScalE2=  1.000000  1.000000
 IRadAn=      0 IRanWt=     -1 IRanGd=            0 ICorTp=0
 NAtoms=   30 NActive=   30 NUniq=   30 SFac= 1.00D+00 NAtFMM=   60 NAOKFM=F Big=F
 Leave Link  301 at Thu Feb 13 23:38:16 2014, MaxMem= 4026531840 cpu:       0.4
 (Enter /usr/caen/gaussian-09revc/g09/l302.exe)
 NPDir=0 NMtPBC=     1 NCelOv=     1 NCel=       1 NClECP=     1 NCelD=      1
         NCelK=      1 NCelE2=     1 NClLst=     1 CellRange=     0.0.
 One-electron integrals computed using PRISM.
 NBasis=   375 RedAO= T  NBF=   375
 NBsUse=   375 1.00D-06 NBFU=   375
 Precomputing XC quadrature grid using
 IXCGrd= 2 IRadAn=           0 IRanWt=          -1 IRanGd=           0 AccXCQ= 0.00D+00.
 NRdTot=    1960 NPtTot=      250122 NUsed=      264245 NTot=      264277
 NSgBfM=   386   386   386   386   386 NAtAll=    30    30.
 Leave Link  302 at Thu Feb 13 23:38:18 2014, MaxMem= 4026531840 cpu:       8.8
 (Enter /usr/caen/gaussian-09revc/g09/l303.exe)
 DipDrv:  MaxL=1.
 Leave Link  303 at Thu Feb 13 23:38:18 2014, MaxMem= 4026531840 cpu:       1.3
 (Enter /usr/caen/gaussian-09revc/g09/l401.exe)
 Harris functional with IExCor=  402 diagonalized for initial guess.
 ExpMin= 3.60D-02 ExpMax= 8.59D+03 ExpMxC= 1.30D+03 IAcc=3 IRadAn=         5 AccDes= 0.00D+00
 HarFok:  IExCor=  402 AccDes= 0.00D+00 IRadAn=         5 IDoV= 1
 ScaDFX=  1.000000  1.000000  1.000000  1.000000
 FoFCou: FMM=F IPFlag=           0 FMFlag=      100000 FMFlg1=           0
         NFxFlg=           0 DoJE=T BraDBF=F KetDBF=T FulRan=T
         Omega=  0.000000  0.000000  1.000000  0.000000  0.000000 ICntrl=     500 IOpCl=  0
         NMat0=    1 NMatS0=    1 NMatT0=    0 NMatD0=    1 NMtDS0=    0 NMtDT0=    0
         I1Cent=           4 NGrid=           0.
 Petite list used in FoFCou.
 Harris En= -504.891243120354    
 Initial guess orbital symmetries:
 Alpha Orbitals:
       Occupied  (A) (A) (A) (A) (A) (A) (A) (A) (A) (A) (A) (A)
                 (A) (A) (A) (A) (A) (A) (A) (A) (A) (A) (A) (A)
                 (A) (A) (A) (A) (A) (A) (A) (A) (A) (A) (A) (A)
                 (A) (A) (A) (A) (A) (A) (A) (A) (A)
       Virtual   (A) (A) (A) (A) (A) (A) (A) (A) (A) (A) (A) (A)
                 (A) (A) (A) (A) (A) (A) (A) (A) (A) (A) (A) (A)
                 (A) (A) (A) (A) (A) (A) (A) (A) (A) (A) (A) (A)
                 (A) (A) (A) (A) (A) (A) (A) (A) (A) (A) (A) (A)
                 (A) (A) (A) (A) (A) (A) (A) (A) (A) (A) (A) (A)
                 (A) (A) (A) (A) (A) (A) (A) (A) (A) (A) (A) (A)
                 (A) (A) (A) (A) (A) (A) (A) (A) (A) (A) (A) (A)
                 (A) (A) (A) (A) (A) (A) (A) (A) (A) (A) (A) (A)
                 (A) (A) (A) (A) (A) (A) (A) (A) (A) (A) (A) (A)
                 (A) (A) (A) (A) (A) (A) (A) (A) (A) (A) (A) (A)
                 (A) (A) (A) (A) (A) (A) (A) (A) (A) (A) (A) (A)
                 (A) (A) (A) (A) (A) (A) (A) (A) (A) (A) (A) (A)
                 (A) (A) (A) (A) (A) (A) (A) (A) (A) (A) (A) (A)
                 (A) (A) (A) (A) (A) (A) (A) (A) (A) (A) (A) (A)
                 (A) (A) (A) (A) (A) (A) (A) (A) (A) (A) (A) (A)
                 (A) (A) (A) (A) (A) (A) (A) (A) (A) (A) (A) (A)
                 (A) (A) (A) (A) (A) (A) (A) (A) (A) (A) (A) (A)
                 (A) (A) (A) (A) (A) (A) (A) (A) (A) (A) (A) (A)
                 (A) (A) (A) (A) (A) (A) (A) (A) (A) (A) (A) (A)
                 (A) (A) (A) (A) (A) (A) (A) (A) (A) (A) (A) (A)
                 (A) (A) (A) (A) (A) (A) (A) (A) (A) (A) (A) (A)
                 (A) (A) (A) (A) (A) (A) (A) (A) (A) (A) (A) (A)
                 (A) (A) (A) (A) (A) (A) (A) (A) (A) (A) (A) (A)
                 (A) (A) (A) (A) (A) (A) (A) (A) (A) (A) (A) (A)
                 (A) (A) (A) (A) (A) (A) (A) (A) (A) (A) (A) (A)
                 (A) (A) (A) (A) (A) (A) (A) (A) (A) (A) (A) (A)
                 (A) (A) (A) (A) (A) (A) (A) (A) (A) (A) (A) (A)
                 (A) (A) (A) (A) (A) (A)
 Beta  Orbitals:
       Occupied  (A) (A) (A) (A) (A) (A) (A) (A) (A) (A) (A) (A)
                 (A) (A) (A) (A) (A) (A) (A) (A) (A) (A) (A) (A)
                 (A) (A) (A) (A) (A) (A) (A) (A) (A) (A) (A) (A)
                 (A) (A) (A) (A) (A) (A) (A) (A)
       Virtual   (A) (A) (A) (A) (A) (A) (A) (A) (A) (A) (A) (A)
                 (A) (A) (A) (A) (A) (A) (A) (A) (A) (A) (A) (A)
                 (A) (A) (A) (A) (A) (A) (A) (A) (A) (A) (A) (A)
                 (A) (A) (A) (A) (A) (A) (A) (A) (A) (A) (A) (A)
                 (A) (A) (A) (A) (A) (A) (A) (A) (A) (A) (A) (A)
                 (A) (A) (A) (A) (A) (A) (A) (A) (A) (A) (A) (A)
                 (A) (A) (A) (A) (A) (A) (A) (A) (A) (A) (A) (A)
                 (A) (A) (A) (A) (A) (A) (A) (A) (A) (A) (A) (A)
                 (A) (A) (A) (A) (A) (A) (A) (A) (A) (A) (A) (A)
                 (A) (A) (A) (A) (A) (A) (A) (A) (A) (A) (A) (A)
                 (A) (A) (A) (A) (A) (A) (A) (A) (A) (A) (A) (A)
                 (A) (A) (A) (A) (A) (A) (A) (A) (A) (A) (A) (A)
                 (A) (A) (A) (A) (A) (A) (A) (A) (A) (A) (A) (A)
                 (A) (A) (A) (A) (A) (A) (A) (A) (A) (A) (A) (A)
                 (A) (A) (A) (A) (A) (A) (A) (A) (A) (A) (A) (A)
                 (A) (A) (A) (A) (A) (A) (A) (A) (A) (A) (A) (A)
                 (A) (A) (A) (A) (A) (A) (A) (A) (A) (A) (A) (A)
                 (A) (A) (A) (A) (A) (A) (A) (A) (A) (A) (A) (A)
                 (A) (A) (A) (A) (A) (A) (A) (A) (A) (A) (A) (A)
                 (A) (A) (A) (A) (A) (A) (A) (A) (A) (A) (A) (A)
                 (A) (A) (A) (A) (A) (A) (A) (A) (A) (A) (A) (A)
                 (A) (A) (A) (A) (A) (A) (A) (A) (A) (A) (A) (A)
                 (A) (A) (A) (A) (A) (A) (A) (A) (A) (A) (A) (A)
                 (A) (A) (A) (A) (A) (A) (A) (A) (A) (A) (A) (A)
                 (A) (A) (A) (A) (A) (A) (A) (A) (A) (A) (A) (A)
                 (A) (A) (A) (A) (A) (A) (A) (A) (A) (A) (A) (A)
                 (A) (A) (A) (A) (A) (A) (A) (A) (A) (A) (A) (A)
                 (A) (A) (A) (A) (A) (A) (A)
 The electronic state of the initial guess is 2-A.
 Initial guess <Sx>= 0.0000 <Sy>= 0.0000 <Sz>= 0.5000 <S**2>= 0.7500 S= 0.5000
 Leave Link  401 at Thu Feb 13 23:38:25 2014, MaxMem= 4026531840 cpu:      44.7
 (Enter /usr/caen/gaussian-09revc/g09/l502.exe)
 UHF open shell SCF:
 Requested convergence on RMS density matrix=1.00D-08 within 128 cycles.
 Requested convergence on MAX density matrix=1.00D-06.
 Requested convergence on             energy=1.00D-06.
 No special actions if energy rises.
 Using DIIS extrapolation, IDIIS=  1040.
 Integral symmetry usage will be decided dynamically.
       263962 words used for storage of precomputed grid.
 IEnd=      735096 IEndB=      735096 NGot=  4026531840 MDV=  4025962767
 LenX=  4025962767 LenY=  4025813330
 Fock matrices will be formed incrementally for  20 cycles.

 Cycle   1  Pass 1  IDiag  1:
 FoFCou: FMM=F IPFlag=           0 FMFlag=      100000 FMFlg1=           0
         NFxFlg=           0 DoJE=F BraDBF=F KetDBF=F FulRan=T
         Omega=  0.000000  0.000000  1.000000  0.000000  0.000000 ICntrl=       0 IOpCl=  1
         NMat0=    1 NMatS0=    1 NMatT0=    0 NMatD0=    1 NMtDS0=    0 NMtDT0=    0
         I1Cent=           0 NGrid=           0.
 Symmetry not used in FoFCou.
 E= -504.471804302504    
 DIIS: error= 3.51D-02 at cycle   1 NSaved=   1.
 NSaved= 1 IEnMin= 1 EnMin= -504.471804302504     IErMin= 1 ErrMin= 3.51D-02
 ErrMax= 3.51D-02 EMaxC= 1.00D-01 BMatC= 1.46D+00 BMatP= 1.46D+00
 IDIUse=3 WtCom= 6.49D-01 WtEn= 3.51D-01
 Coeff-Com:  0.100D+01
 Coeff-En:   0.100D+01
 Coeff:      0.100D+01
 Gap=     0.186 Goal=   None    Shift=    0.000
 Gap=     0.197 Goal=   None    Shift=    0.000
 GapD=    0.186 DampG=1.000 DampE=0.500 DampFc=0.5000 IDamp=-1.
 Damping current iteration by 5.00D-01
 RMSDP=1.63D-02 MaxDP=1.89D+00              OVMax= 2.25D-01

 Cycle   2  Pass 1  IDiag  1:
 RMSU=  3.32D-03    CP:  8.33D-01
 E= -504.618020648403     Delta-E=       -0.146216345899 Rises=F Damp=T
 DIIS: error= 4.89D-03 at cycle   2 NSaved=   2.
 NSaved= 2 IEnMin= 2 EnMin= -504.618020648403     IErMin= 2 ErrMin= 4.89D-03
 ErrMax= 4.89D-03 EMaxC= 1.00D-01 BMatC= 1.14D-01 BMatP= 1.46D+00
 IDIUse=3 WtCom= 9.51D-01 WtEn= 4.89D-02
 Coeff-Com:  0.941D-01 0.906D+00
 Coeff-En:   0.198D+00 0.802D+00
 Coeff:      0.992D-01 0.901D+00
 Gap=     0.231 Goal=   None    Shift=    0.000
 Gap=     0.214 Goal=   None    Shift=    0.000
 RMSDP=4.75D-03 MaxDP=3.87D-01 DE=-1.46D-01 OVMax= 2.13D-01

 Cycle   3  Pass 1  IDiag  1:
 RMSU=  2.70D-03    CP:  8.73D-01  6.36D-01
 E= -504.820571789256     Delta-E=       -0.202551140853 Rises=F Damp=F
 DIIS: error= 7.19D-03 at cycle   3 NSaved=   3.
 NSaved= 3 IEnMin= 3 EnMin= -504.820571789256     IErMin= 2 ErrMin= 4.89D-03
 ErrMax= 7.19D-03 EMaxC= 1.00D-01 BMatC= 8.61D-02 BMatP= 1.14D-01
 IDIUse=3 WtCom= 9.28D-01 WtEn= 7.19D-02
 Coeff-Com: -0.384D-02 0.459D+00 0.545D+00
 Coeff-En:   0.000D+00 0.000D+00 0.100D+01
 Coeff:     -0.356D-02 0.426D+00 0.577D+00
 Gap=     0.227 Goal=   None    Shift=    0.000
 Gap=     0.158 Goal=   None    Shift=    0.000
 RMSDP=3.09D-03 MaxDP=4.24D-01 DE=-2.03D-01 OVMax= 1.31D-01

 Cycle   4  Pass 1  IDiag  1:
 RMSU=  1.05D-03    CP:  8.24D-01  7.87D-01  5.78D-01
 E= -504.832526986239     Delta-E=       -0.011955196983 Rises=F Damp=F
 DIIS: error= 5.41D-03 at cycle   4 NSaved=   4.
 NSaved= 4 IEnMin= 4 EnMin= -504.832526986239     IErMin= 2 ErrMin= 4.89D-03
 ErrMax= 5.41D-03 EMaxC= 1.00D-01 BMatC= 3.56D-02 BMatP= 8.61D-02
 IDIUse=3 WtCom= 9.46D-01 WtEn= 5.41D-02
 Coeff-Com: -0.185D-01 0.121D+00 0.403D+00 0.494D+00
 Coeff-En:   0.000D+00 0.000D+00 0.299D+00 0.701D+00
 Coeff:     -0.175D-01 0.114D+00 0.398D+00 0.505D+00
 Gap=     0.216 Goal=   None    Shift=    0.000
 Gap=     0.149 Goal=   None    Shift=    0.000
 RMSDP=9.40D-04 MaxDP=1.00D-01 DE=-1.20D-02 OVMax= 3.27D-02

 Cycle   5  Pass 1  IDiag  1:
 RMSU=  4.49D-04    CP:  8.13D-01  7.97D-01  6.68D-01  7.07D-01
 E= -504.839420093968     Delta-E=       -0.006893107729 Rises=F Damp=F
 DIIS: error= 1.12D-03 at cycle   5 NSaved=   5.
 NSaved= 5 IEnMin= 5 EnMin= -504.839420093968     IErMin= 5 ErrMin= 1.12D-03
 ErrMax= 1.12D-03 EMaxC= 1.00D-01 BMatC= 1.09D-03 BMatP= 3.56D-02
 IDIUse=3 WtCom= 9.89D-01 WtEn= 1.12D-02
 Coeff-Com: -0.735D-02 0.209D-01 0.155D+00 0.225D+00 0.606D+00
 Coeff-En:   0.000D+00 0.000D+00 0.000D+00 0.000D+00 0.100D+01
 Coeff:     -0.727D-02 0.207D-01 0.153D+00 0.223D+00 0.610D+00
 Gap=     0.214 Goal=   None    Shift=    0.000
 Gap=     0.152 Goal=   None    Shift=    0.000
 RMSDP=3.67D-04 MaxDP=4.18D-02 DE=-6.89D-03 OVMax= 7.01D-03

 Cycle   6  Pass 1  IDiag  1:
 RMSU=  1.45D-04    CP:  8.17D-01  7.75D-01  7.08D-01  6.87D-01  7.41D-01
 E= -504.839600773728     Delta-E=       -0.000180679760 Rises=F Damp=F
 DIIS: error= 1.26D-03 at cycle   6 NSaved=   6.
 NSaved= 6 IEnMin= 6 EnMin= -504.839600773728     IErMin= 5 ErrMin= 1.12D-03
 ErrMax= 1.26D-03 EMaxC= 1.00D-01 BMatC= 5.14D-04 BMatP= 1.09D-03
 IDIUse=3 WtCom= 9.89D-01 WtEn= 1.12D-02
 Coeff-Com: -0.111D-02-0.811D-02 0.362D-01 0.538D-01 0.409D+00 0.510D+00
 Coeff-En:   0.000D+00 0.000D+00 0.000D+00 0.000D+00 0.206D+00 0.794D+00
 Coeff:     -0.110D-02-0.802D-02 0.358D-01 0.532D-01 0.407D+00 0.513D+00
 Gap=     0.215 Goal=   None    Shift=    0.000
 Gap=     0.152 Goal=   None    Shift=    0.000
 RMSDP=1.55D-04 MaxDP=1.85D-02 DE=-1.81D-04 OVMax= 5.72D-03

 Cycle   7  Pass 1  IDiag  1:
 RMSU=  6.96D-05    CP:  8.18D-01  7.73D-01  7.03D-01  6.84D-01  8.09D-01
                    CP:  5.51D-01
 E= -504.839693422894     Delta-E=       -0.000092649167 Rises=F Damp=F
 DIIS: error= 3.08D-04 at cycle   7 NSaved=   7.
 NSaved= 7 IEnMin= 7 EnMin= -504.839693422894     IErMin= 7 ErrMin= 3.08D-04
 ErrMax= 3.08D-04 EMaxC= 1.00D-01 BMatC= 7.24D-05 BMatP= 5.14D-04
 IDIUse=3 WtCom= 9.97D-01 WtEn= 3.08D-03
 Coeff-Com:  0.133D-02-0.886D-02-0.124D-01-0.269D-01 0.845D-01 0.297D+00
 Coeff-Com:  0.666D+00
 Coeff-En:   0.000D+00 0.000D+00 0.000D+00 0.000D+00 0.000D+00 0.000D+00
 Coeff-En:   0.100D+01
 Coeff:      0.133D-02-0.883D-02-0.123D-01-0.269D-01 0.842D-01 0.296D+00
 Coeff:      0.667D+00
 Gap=     0.215 Goal=   None    Shift=    0.000
 Gap=     0.153 Goal=   None    Shift=    0.000
 RMSDP=6.00D-05 MaxDP=7.08D-03 DE=-9.26D-05 OVMax= 2.40D-03

 Cycle   8  Pass 1  IDiag  1:
 RMSU=  3.11D-05    CP:  8.18D-01  7.75D-01  7.08D-01  6.80D-01  8.35D-01
                    CP:  6.73D-01  8.78D-01
 E= -504.839712679836     Delta-E=       -0.000019256941 Rises=F Damp=F
 DIIS: error= 1.42D-04 at cycle   8 NSaved=   8.
 NSaved= 8 IEnMin= 8 EnMin= -504.839712679836     IErMin= 8 ErrMin= 1.42D-04
 ErrMax= 1.42D-04 EMaxC= 1.00D-01 BMatC= 1.25D-05 BMatP= 7.24D-05
 IDIUse=3 WtCom= 9.99D-01 WtEn= 1.42D-03
 Coeff-Com:  0.104D-02-0.166D-02-0.142D-01-0.299D-01-0.741D-01 0.644D-02
 Coeff-Com:  0.349D+00 0.764D+00
 Coeff-En:   0.000D+00 0.000D+00 0.000D+00 0.000D+00 0.000D+00 0.000D+00
 Coeff-En:   0.000D+00 0.100D+01
 Coeff:      0.104D-02-0.166D-02-0.142D-01-0.298D-01-0.740D-01 0.643D-02
 Coeff:      0.348D+00 0.764D+00
 Gap=     0.215 Goal=   None    Shift=    0.000
 Gap=     0.153 Goal=   None    Shift=    0.000
 RMSDP=3.17D-05 MaxDP=4.67D-03 DE=-1.93D-05 OVMax= 2.36D-03

 Cycle   9  Pass 1  IDiag  1:
 RMSU=  1.16D-05    CP:  8.18D-01  7.72D-01  7.08D-01  6.76D-01  8.49D-01
                    CP:  6.75D-01  1.05D+00  8.83D-01
 E= -504.839717107311     Delta-E=       -0.000004427475 Rises=F Damp=F
 DIIS: error= 2.27D-05 at cycle   9 NSaved=   9.
 NSaved= 9 IEnMin= 9 EnMin= -504.839717107311     IErMin= 9 ErrMin= 2.27D-05
 ErrMax= 2.27D-05 EMaxC= 1.00D-01 BMatC= 7.76D-07 BMatP= 1.25D-05
 IDIUse=1 WtCom= 1.00D+00 WtEn= 0.00D+00
 Coeff-Com:  0.155D-03 0.284D-03-0.306D-02-0.711D-02-0.310D-01-0.245D-01
 Coeff-Com:  0.398D-01 0.239D+00 0.786D+00
 Coeff:      0.155D-03 0.284D-03-0.306D-02-0.711D-02-0.310D-01-0.245D-01
 Coeff:      0.398D-01 0.239D+00 0.786D+00
 Gap=     0.215 Goal=   None    Shift=    0.000
 Gap=     0.153 Goal=   None    Shift=    0.000
 RMSDP=1.21D-05 MaxDP=1.33D-03 DE=-4.43D-06 OVMax= 5.50D-04

 Cycle  10  Pass 1  IDiag  1:
 RMSU=  5.15D-06    CP:  8.18D-01  7.72D-01  7.09D-01  6.74D-01  8.49D-01
                    CP:  7.00D-01  1.07D+00  9.03D-01  7.90D-01
 E= -504.839717431768     Delta-E=       -0.000000324457 Rises=F Damp=F
 DIIS: error= 1.23D-05 at cycle  10 NSaved=  10.
 NSaved=10 IEnMin=10 EnMin= -504.839717431768     IErMin=10 ErrMin= 1.23D-05
 ErrMax= 1.23D-05 EMaxC= 1.00D-01 BMatC= 1.34D-07 BMatP= 7.76D-07
 IDIUse=1 WtCom= 1.00D+00 WtEn= 0.00D+00
 Coeff-Com: -0.134D-03 0.382D-03 0.151D-02 0.260D-02 0.305D-02-0.660D-02
 Coeff-Com: -0.461D-01-0.498D-01 0.253D+00 0.842D+00
 Coeff:     -0.134D-03 0.382D-03 0.151D-02 0.260D-02 0.305D-02-0.660D-02
 Coeff:     -0.461D-01-0.498D-01 0.253D+00 0.842D+00
 Gap=     0.215 Goal=   None    Shift=    0.000
 Gap=     0.153 Goal=   None    Shift=    0.000
 RMSDP=4.68D-06 MaxDP=7.84D-04 DE=-3.24D-07 OVMax= 2.32D-04

 Cycle  11  Pass 1  IDiag  1:
 RMSU=  1.31D-06    CP:  8.18D-01  7.72D-01  7.09D-01  6.74D-01  8.50D-01
                    CP:  6.95D-01  1.07D+00  9.21D-01  9.30D-01  8.82D-01
 E= -504.839717500356     Delta-E=       -0.000000068588 Rises=F Damp=F
 DIIS: error= 4.91D-06 at cycle  11 NSaved=  11.
 NSaved=11 IEnMin=11 EnMin= -504.839717500356     IErMin=11 ErrMin= 4.91D-06
 ErrMax= 4.91D-06 EMaxC= 1.00D-01 BMatC= 2.72D-08 BMatP= 1.34D-07
 IDIUse=1 WtCom= 1.00D+00 WtEn= 0.00D+00
 Coeff-Com: -0.688D-04 0.100D-03 0.107D-02 0.212D-02 0.608D-02 0.151D-02
 Coeff-Com: -0.233D-01-0.562D-01-0.332D-01 0.314D+00 0.788D+00
 Coeff:     -0.688D-04 0.100D-03 0.107D-02 0.212D-02 0.608D-02 0.151D-02
 Coeff:     -0.233D-01-0.562D-01-0.332D-01 0.314D+00 0.788D+00
 Gap=     0.215 Goal=   None    Shift=    0.000
 Gap=     0.153 Goal=   None    Shift=    0.000
 RMSDP=1.24D-06 MaxDP=1.19D-04 DE=-6.86D-08 OVMax= 9.78D-05

 Cycle  12  Pass 1  IDiag  1:
 RMSU=  5.05D-07    CP:  8.18D-01  7.72D-01  7.09D-01  6.74D-01  8.51D-01
                    CP:  6.95D-01  1.07D+00  9.28D-01  9.35D-01  9.75D-01
                    CP:  1.15D+00
 E= -504.839717513836     Delta-E=       -0.000000013480 Rises=F Damp=F
 DIIS: error= 2.27D-06 at cycle  12 NSaved=  12.
 NSaved=12 IEnMin=12 EnMin= -504.839717513836     IErMin=12 ErrMin= 2.27D-06
 ErrMax= 2.27D-06 EMaxC= 1.00D-01 BMatC= 6.52D-09 BMatP= 2.72D-08
 IDIUse=1 WtCom= 1.00D+00 WtEn= 0.00D+00
 Coeff-Com:  0.464D-05-0.495D-04 0.120D-03 0.360D-03 0.196D-02 0.207D-02
 Coeff-Com:  0.706D-03-0.130D-01-0.750D-01-0.624D-01 0.350D+00 0.795D+00
 Coeff:      0.464D-05-0.495D-04 0.120D-03 0.360D-03 0.196D-02 0.207D-02
 Coeff:      0.706D-03-0.130D-01-0.750D-01-0.624D-01 0.350D+00 0.795D+00
 Gap=     0.215 Goal=   None    Shift=    0.000
 Gap=     0.153 Goal=   None    Shift=    0.000
 RMSDP=1.06D-06 MaxDP=2.20D-04 DE=-1.35D-08 OVMax= 5.03D-05

 Cycle  13  Pass 1  IDiag  1:
 RMSU=  2.70D-07    CP:  8.18D-01  7.72D-01  7.09D-01  6.74D-01  8.50D-01
                    CP:  6.95D-01  1.07D+00  9.18D-01  9.53D-01  1.03D+00
                    CP:  1.23D+00  1.04D+00
 E= -504.839717517172     Delta-E=       -0.000000003336 Rises=F Damp=F
 DIIS: error= 6.34D-07 at cycle  13 NSaved=  13.
 NSaved=13 IEnMin=13 EnMin= -504.839717517172     IErMin=13 ErrMin= 6.34D-07
 ErrMax= 6.34D-07 EMaxC= 1.00D-01 BMatC= 5.35D-10 BMatP= 6.52D-09
 IDIUse=1 WtCom= 1.00D+00 WtEn= 0.00D+00
 Coeff-Com:  0.114D-04-0.291D-04-0.125D-03-0.198D-03-0.328D-03 0.297D-03
 Coeff-Com:  0.333D-02 0.415D-02-0.159D-01-0.637D-01-0.135D-01 0.231D+00
 Coeff-Com:  0.855D+00
 Coeff:      0.114D-04-0.291D-04-0.125D-03-0.198D-03-0.328D-03 0.297D-03
 Coeff:      0.333D-02 0.415D-02-0.159D-01-0.637D-01-0.135D-01 0.231D+00
 Coeff:      0.855D+00
 Gap=     0.215 Goal=   None    Shift=    0.000
 Gap=     0.153 Goal=   None    Shift=    0.000
 RMSDP=3.91D-07 MaxDP=6.23D-05 DE=-3.34D-09 OVMax= 1.99D-05

 Cycle  14  Pass 1  IDiag  1:
 RMSU=  9.24D-08    CP:  8.18D-01  7.72D-01  7.09D-01  6.74D-01  8.51D-01
                    CP:  6.95D-01  1.08D+00  9.20D-01  9.53D-01  1.03D+00
                    CP:  1.30D+00  1.19D+00  9.00D-01
 E= -504.839717517503     Delta-E=       -0.000000000331 Rises=F Damp=F
 DIIS: error= 2.37D-07 at cycle  14 NSaved=  14.
 NSaved=14 IEnMin=14 EnMin= -504.839717517503     IErMin=14 ErrMin= 2.37D-07
 ErrMax= 2.37D-07 EMaxC= 1.00D-01 BMatC= 6.07D-11 BMatP= 5.35D-10
 IDIUse=1 WtCom= 1.00D+00 WtEn= 0.00D+00
 Coeff-Com:  0.121D-05-0.109D-05-0.383D-04-0.701D-04-0.223D-03-0.130D-03
 Coeff-Com:  0.640D-03 0.192D-02 0.407D-02-0.823D-02-0.378D-01-0.285D-01
 Coeff-Com:  0.194D+00 0.875D+00
 Coeff:      0.121D-05-0.109D-05-0.383D-04-0.701D-04-0.223D-03-0.130D-03
 Coeff:      0.640D-03 0.192D-02 0.407D-02-0.823D-02-0.378D-01-0.285D-01
 Coeff:      0.194D+00 0.875D+00
 Gap=     0.215 Goal=   None    Shift=    0.000
 Gap=     0.153 Goal=   None    Shift=    0.000
 RMSDP=9.62D-08 MaxDP=9.42D-06 DE=-3.31D-10 OVMax= 5.58D-06

 Cycle  15  Pass 1  IDiag  1:
 RMSU=  3.81D-08    CP:  8.18D-01  7.72D-01  7.09D-01  6.74D-01  8.51D-01
                    CP:  6.95D-01  1.08D+00  9.20D-01  9.55D-01  1.03D+00
                    CP:  1.31D+00  1.20D+00  9.71D-01  1.03D+00
 E= -504.839717517540     Delta-E=       -0.000000000038 Rises=F Damp=F
 DIIS: error= 9.02D-08 at cycle  15 NSaved=  15.
 NSaved=15 IEnMin=15 EnMin= -504.839717517540     IErMin=15 ErrMin= 9.02D-08
 ErrMax= 9.02D-08 EMaxC= 1.00D-01 BMatC= 1.94D-11 BMatP= 6.07D-11
 IDIUse=1 WtCom= 1.00D+00 WtEn= 0.00D+00
 Coeff-Com: -0.163D-05 0.497D-05 0.328D-05 0.180D-05-0.501D-04-0.140D-03
 Coeff-Com: -0.287D-03 0.143D-03 0.507D-02 0.774D-02-0.157D-01-0.565D-01
 Coeff-Com: -0.670D-01 0.397D+00 0.730D+00
 Coeff:     -0.163D-05 0.497D-05 0.328D-05 0.180D-05-0.501D-04-0.140D-03
 Coeff:     -0.287D-03 0.143D-03 0.507D-02 0.774D-02-0.157D-01-0.565D-01
 Coeff:     -0.670D-01 0.397D+00 0.730D+00
 Gap=     0.215 Goal=   None    Shift=    0.000
 Gap=     0.153 Goal=   None    Shift=    0.000
 RMSDP=5.03D-08 MaxDP=7.94D-06 DE=-3.77D-11 OVMax= 1.89D-06

 Cycle  16  Pass 1  IDiag  1:
 RMSU=  1.34D-08    CP:  8.18D-01  7.72D-01  7.09D-01  6.74D-01  8.51D-01
                    CP:  6.95D-01  1.08D+00  9.20D-01  9.55D-01  1.03D+00
                    CP:  1.31D+00  1.22D+00  1.00D+00  1.10D+00  8.33D-01
 E= -504.839717517542     Delta-E=       -0.000000000001 Rises=F Damp=F
 DIIS: error= 3.72D-08 at cycle  16 NSaved=  16.
 NSaved=16 IEnMin=16 EnMin= -504.839717517542     IErMin=16 ErrMin= 3.72D-08
 ErrMax= 3.72D-08 EMaxC= 1.00D-01 BMatC= 1.79D-12 BMatP= 1.94D-11
 IDIUse=1 WtCom= 1.00D+00 WtEn= 0.00D+00
 Coeff-Com: -0.578D-06 0.155D-05 0.591D-05 0.104D-04 0.172D-04-0.315D-04
 Coeff-Com: -0.169D-03-0.249D-03 0.945D-03 0.333D-02 0.808D-03-0.120D-01
 Coeff-Com: -0.453D-01-0.212D-01 0.219D+00 0.854D+00
 Coeff:     -0.578D-06 0.155D-05 0.591D-05 0.104D-04 0.172D-04-0.315D-04
 Coeff:     -0.169D-03-0.249D-03 0.945D-03 0.333D-02 0.808D-03-0.120D-01
 Coeff:     -0.453D-01-0.212D-01 0.219D+00 0.854D+00
 Gap=     0.215 Goal=   None    Shift=    0.000
 Gap=     0.153 Goal=   None    Shift=    0.000
 RMSDP=1.37D-08 MaxDP=2.17D-06 DE=-1.36D-12 OVMax= 7.96D-07

 Cycle  17  Pass 1  IDiag  1:
 RMSU=  5.29D-09    CP:  8.18D-01  7.72D-01  7.09D-01  6.74D-01  8.51D-01
                    CP:  6.95D-01  1.08D+00  9.20D-01  9.55D-01  1.03D+00
                    CP:  1.31D+00  1.22D+00  9.99D-01  1.13D+00  9.04D-01
                    CP:  1.03D+00
 E= -504.839717517545     Delta-E=       -0.000000000003 Rises=F Damp=F
 DIIS: error= 1.18D-08 at cycle  17 NSaved=  17.
 NSaved=17 IEnMin=17 EnMin= -504.839717517545     IErMin=17 ErrMin= 1.18D-08
 ErrMax= 1.18D-08 EMaxC= 1.00D-01 BMatC= 2.93D-13 BMatP= 1.79D-12
 IDIUse=1 WtCom= 1.00D+00 WtEn= 0.00D+00
 Coeff-Com: -0.161D-07-0.136D-07 0.183D-05 0.430D-05 0.126D-04 0.432D-05
 Coeff-Com: -0.266D-04-0.107D-03-0.207D-03 0.314D-03 0.205D-02 0.213D-02
 Coeff-Com: -0.834D-02-0.550D-01-0.661D-02 0.316D+00 0.750D+00
 Coeff:     -0.161D-07-0.136D-07 0.183D-05 0.430D-05 0.126D-04 0.432D-05
 Coeff:     -0.266D-04-0.107D-03-0.207D-03 0.314D-03 0.205D-02 0.213D-02
 Coeff:     -0.834D-02-0.550D-01-0.661D-02 0.316D+00 0.750D+00
 Gap=     0.215 Goal=   None    Shift=    0.000
 Gap=     0.153 Goal=   None    Shift=    0.000
 RMSDP=6.10D-09 MaxDP=5.38D-07 DE=-2.73D-12 OVMax= 1.41D-07

 SCF Done:  E(UB3LYP) =  -504.839717518     A.U. after   17 cycles
             Convg  =    0.6101D-08             -V/T =  2.0045
 <Sx>= 0.0000 <Sy>= 0.0000 <Sz>= 0.5000 <S**2>= 0.7567 S= 0.5033
 <L.S>= 0.000000000000E+00
 KE= 5.025878174392D+02 PE=-2.516417520023D+03 EE= 8.386947249742D+02
 Annihilation of the first spin contaminant:
 S**2 before annihilation     0.7567,   after     0.7500
 Leave Link  502 at Thu Feb 13 23:45:10 2014, MaxMem= 4026531840 cpu:    3230.2
 (Enter /usr/caen/gaussian-09revc/g09/l801.exe)
 Range of M.O.s used for correlation:     1   375
 NBasis=   375 NAE=    45 NBE=    44 NFC=     0 NFV=     0
 NROrb=    375 NOA=    45 NOB=    44 NVA=   330 NVB=   331

 **** Warning!!: The largest alpha MO coefficient is  0.13487427D+03


 **** Warning!!: The largest beta MO coefficient is  0.13010094D+03

 Leave Link  801 at Thu Feb 13 23:45:10 2014, MaxMem= 4026531840 cpu:       0.3
 (Enter /usr/caen/gaussian-09revc/g09/l1101.exe)
 Using compressed storage, NAtomX=    30.
 Will process  31 centers per pass.
 Leave Link 1101 at Thu Feb 13 23:45:12 2014, MaxMem= 4026531840 cpu:      14.5
 (Enter /usr/caen/gaussian-09revc/g09/l1102.exe)
 Symmetrizing basis deriv contribution to polar:
 IMax=3 JMax=2 DiffMx= 0.00D+00
 Leave Link 1102 at Thu Feb 13 23:45:12 2014, MaxMem= 4026531840 cpu:       0.8
 (Enter /usr/caen/gaussian-09revc/g09/l1110.exe)
 Forming Gx(P) for the SCF density, NAtomX=    30.
 Integral derivatives from FoFDir/FoFCou, PRISM(SPDF).
 Do as many integral derivatives as possible in FoFDir.
 G2DrvN: MDV=    4026531496.
 G2DrvN: will do    31 centers at a time, making    1 passes doing MaxLOS=2.
 Calling FoFCou, ICntrl=  3107 FMM=F I1Cent=   0 AccDes= 0.00D+00.
 FoFCou: FMM=F IPFlag=           0 FMFlag=      100000 FMFlg1=           0
         NFxFlg=           0 DoJE=F BraDBF=F KetDBF=F FulRan=T
         Omega=  0.000000  0.000000  1.000000  0.000000  0.000000 ICntrl=    3107 IOpCl=  1
         NMat0=    1 NMatS0=    1 NMatT0=    0 NMatD0=    1 NMtDS0=    0 NMtDT0=    0
         I1Cent=           0 NGrid=           0.
 Symmetry not used in FoFCou.
 FoFDir/FoFCou used for L=0 through L=2.
 End of G2Drv Frequency-dependent properties file   721 does not exist.
 End of G2Drv Frequency-dependent properties file   722 does not exist.
 Leave Link 1110 at Thu Feb 13 23:51:36 2014, MaxMem= 4026531840 cpu:    3063.5
 (Enter /usr/caen/gaussian-09revc/g09/l1002.exe)
 Minotr:  UHF open shell wavefunction.
          IDoAtm=111111111111111111111111111111
          Direct CPHF calculation.
          Differentiating once with respect to electric field.
                with respect to dipole field.
          Differentiating once with respect to nuclear coordinates.
          Requested convergence is 1.0D-08 RMS, and 1.0D-07 maximum.
          Secondary convergence is 1.0D-12 RMS, and 1.0D-12 maximum.
          NewPWx=T KeepS1=F KeepF1=F KeepIn=T MapXYZ=F SortEE=F KeepMc=T.
          MDV=    4026531536 using IRadAn=       2.
 Generate precomputed XC quadrature information.
          Solving linear equations simultaneously, MaxMat=       0.
 Integrals replicated using symmetry in FoFDir.
 MinBra= 0 MaxBra= 2 Meth= 1.
 IRaf=       0 NMat=  93 IRICut=     232 DoRegI=T DoRafI=T ISym2E= 2 JSym2E=2.
          There are    93 degrees of freedom in the 1st order CPHF.  IDoFFX=5.
     90 vectors produced by pass  0 Test12= 3.16D-14 1.08D-09 XBig12= 2.30D+02 5.83D+00.
 AX will form    90 AO Fock derivatives at one time.
     90 vectors produced by pass  1 Test12= 3.16D-14 1.08D-09 XBig12= 4.06D+01 9.65D-01.
     90 vectors produced by pass  2 Test12= 3.16D-14 1.08D-09 XBig12= 5.60D-01 8.21D-02.
     90 vectors produced by pass  3 Test12= 3.16D-14 1.08D-09 XBig12= 3.05D-03 4.07D-03.
     90 vectors produced by pass  4 Test12= 3.16D-14 1.08D-09 XBig12= 1.14D-05 3.55D-04.
     90 vectors produced by pass  5 Test12= 3.16D-14 1.08D-09 XBig12= 5.89D-08 1.50D-05.
     47 vectors produced by pass  6 Test12= 3.16D-14 1.08D-09 XBig12= 1.84D-10 1.00D-06.
     17 vectors produced by pass  7 Test12= 3.16D-14 1.08D-09 XBig12= 5.93D-12 2.40D-07.
      7 vectors produced by pass  8 Test12= 3.16D-14 1.08D-09 XBig12= 3.26D-13 4.57D-08.
      3 vectors produced by pass  9 Test12= 3.16D-14 1.08D-09 XBig12= 3.15D-15 4.29D-09.
 Inverted reduced A of dimension   614 with in-core refinement.
 FullF1:  Do perturbations    1 to     3.
 Isotropic polarizability for W=    0.000000      128.23 Bohr**3.
 End of Minotr Frequency-dependent properties file   721 does not exist.
 End of Minotr Frequency-dependent properties file   722 does not exist.
 Leave Link 1002 at Fri Feb 14 00:28:20 2014, MaxMem= 4026531840 cpu:   17603.5
 (Enter /usr/caen/gaussian-09revc/g09/l601.exe)
 Copying SCF densities to generalized density rwf, IOpCl= 1 IROHF=0.

 **********************************************************************

            Population analysis using the SCF density.

 **********************************************************************

 Orbital symmetries:
 Alpha Orbitals:
       Occupied  (A) (A) (A) (A) (A) (A) (A) (A) (A) (A) (A) (A)
                 (A) (A) (A) (A) (A) (A) (A) (A) (A) (A) (A) (A)
                 (A) (A) (A) (A) (A) (A) (A) (A) (A) (A) (A) (A)
                 (A) (A) (A) (A) (A) (A) (A) (A) (A)
       Virtual   (A) (A) (A) (A) (A) (A) (A) (A) (A) (A) (A) (A)
                 (A) (A) (A) (A) (A) (A) (A) (A) (A) (A) (A) (A)
                 (A) (A) (A) (A) (A) (A) (A) (A) (A) (A) (A) (A)
                 (A) (A) (A) (A) (A) (A) (A) (A) (A) (A) (A) (A)
                 (A) (A) (A) (A) (A) (A) (A) (A) (A) (A) (A) (A)
                 (A) (A) (A) (A) (A) (A) (A) (A) (A) (A) (A) (A)
                 (A) (A) (A) (A) (A) (A) (A) (A) (A) (A) (A) (A)
                 (A) (A) (A) (A) (A) (A) (A) (A) (A) (A) (A) (A)
                 (A) (A) (A) (A) (A) (A) (A) (A) (A) (A) (A) (A)
                 (A) (A) (A) (A) (A) (A) (A) (A) (A) (A) (A) (A)
                 (A) (A) (A) (A) (A) (A) (A) (A) (A) (A) (A) (A)
                 (A) (A) (A) (A) (A) (A) (A) (A) (A) (A) (A) (A)
                 (A) (A) (A) (A) (A) (A) (A) (A) (A) (A) (A) (A)
                 (A) (A) (A) (A) (A) (A) (A) (A) (A) (A) (A) (A)
                 (A) (A) (A) (A) (A) (A) (A) (A) (A) (A) (A) (A)
                 (A) (A) (A) (A) (A) (A) (A) (A) (A) (A) (A) (A)
                 (A) (A) (A) (A) (A) (A) (A) (A) (A) (A) (A) (A)
                 (A) (A) (A) (A) (A) (A) (A) (A) (A) (A) (A) (A)
                 (A) (A) (A) (A) (A) (A) (A) (A) (A) (A) (A) (A)
                 (A) (A) (A) (A) (A) (A) (A) (A) (A) (A) (A) (A)
                 (A) (A) (A) (A) (A) (A) (A) (A) (A) (A) (A) (A)
                 (A) (A) (A) (A) (A) (A) (A) (A) (A) (A) (A) (A)
                 (A) (A) (A) (A) (A) (A) (A) (A) (A) (A) (A) (A)
                 (A) (A) (A) (A) (A) (A) (A) (A) (A) (A) (A) (A)
                 (A) (A) (A) (A) (A) (A) (A) (A) (A) (A) (A) (A)
                 (A) (A) (A) (A) (A) (A) (A) (A) (A) (A) (A) (A)
                 (A) (A) (A) (A) (A) (A) (A) (A) (A) (A) (A) (A)
                 (A) (A) (A) (A) (A) (A)
 Beta  Orbitals:
       Occupied  (A) (A) (A) (A) (A) (A) (A) (A) (A) (A) (A) (A)
                 (A) (A) (A) (A) (A) (A) (A) (A) (A) (A) (A) (A)
                 (A) (A) (A) (A) (A) (A) (A) (A) (A) (A) (A) (A)
                 (A) (A) (A) (A) (A) (A) (A) (A)
       Virtual   (A) (A) (A) (A) (A) (A) (A) (A) (A) (A) (A) (A)
                 (A) (A) (A) (A) (A) (A) (A) (A) (A) (A) (A) (A)
                 (A) (A) (A) (A) (A) (A) (A) (A) (A) (A) (A) (A)
                 (A) (A) (A) (A) (A) (A) (A) (A) (A) (A) (A) (A)
                 (A) (A) (A) (A) (A) (A) (A) (A) (A) (A) (A) (A)
                 (A) (A) (A) (A) (A) (A) (A) (A) (A) (A) (A) (A)
                 (A) (A) (A) (A) (A) (A) (A) (A) (A) (A) (A) (A)
                 (A) (A) (A) (A) (A) (A) (A) (A) (A) (A) (A) (A)
                 (A) (A) (A) (A) (A) (A) (A) (A) (A) (A) (A) (A)
                 (A) (A) (A) (A) (A) (A) (A) (A) (A) (A) (A) (A)
                 (A) (A) (A) (A) (A) (A) (A) (A) (A) (A) (A) (A)
                 (A) (A) (A) (A) (A) (A) (A) (A) (A) (A) (A) (A)
                 (A) (A) (A) (A) (A) (A) (A) (A) (A) (A) (A) (A)
                 (A) (A) (A) (A) (A) (A) (A) (A) (A) (A) (A) (A)
                 (A) (A) (A) (A) (A) (A) (A) (A) (A) (A) (A) (A)
                 (A) (A) (A) (A) (A) (A) (A) (A) (A) (A) (A) (A)
                 (A) (A) (A) (A) (A) (A) (A) (A) (A) (A) (A) (A)
                 (A) (A) (A) (A) (A) (A) (A) (A) (A) (A) (A) (A)
                 (A) (A) (A) (A) (A) (A) (A) (A) (A) (A) (A) (A)
                 (A) (A) (A) (A) (A) (A) (A) (A) (A) (A) (A) (A)
                 (A) (A) (A) (A) (A) (A) (A) (A) (A) (A) (A) (A)
                 (A) (A) (A) (A) (A) (A) (A) (A) (A) (A) (A) (A)
                 (A) (A) (A) (A) (A) (A) (A) (A) (A) (A) (A) (A)
                 (A) (A) (A) (A) (A) (A) (A) (A) (A) (A) (A) (A)
                 (A) (A) (A) (A) (A) (A) (A) (A) (A) (A) (A) (A)
                 (A) (A) (A) (A) (A) (A) (A) (A) (A) (A) (A) (A)
                 (A) (A) (A) (A) (A) (A) (A) (A) (A) (A) (A) (A)
                 (A) (A) (A) (A) (A) (A) (A)
 The electronic state is 2-A.
 Alpha  occ. eigenvalues --  -19.18333 -19.17348 -10.22286 -10.19413 -10.18840
 Alpha  occ. eigenvalues --  -10.18192 -10.17885 -10.17611 -10.17256 -10.15995
 Alpha  occ. eigenvalues --  -10.15469  -1.12747  -0.89098  -0.83607  -0.80850
 Alpha  occ. eigenvalues --   -0.75941  -0.69128  -0.68543  -0.67532  -0.61682
 Alpha  occ. eigenvalues --   -0.57627  -0.56602  -0.53385  -0.49399  -0.48072
 Alpha  occ. eigenvalues --   -0.46790  -0.45380  -0.44346  -0.43878  -0.42406
 Alpha  occ. eigenvalues --   -0.41677  -0.39882  -0.39501  -0.38736  -0.38187
 Alpha  occ. eigenvalues --   -0.37662  -0.36365  -0.35894  -0.33762  -0.33588
 Alpha  occ. eigenvalues --   -0.32910  -0.32194  -0.29397  -0.27811  -0.22755
 Alpha virt. eigenvalues --   -0.01212  -0.00430   0.00120   0.00852   0.01831
 Alpha virt. eigenvalues --    0.02017   0.02154   0.03044   0.03461   0.03858
 Alpha virt. eigenvalues --    0.04084   0.04999   0.05310   0.05491   0.05780
 Alpha virt. eigenvalues --    0.06475   0.06886   0.07965   0.08110   0.08653
 Alpha virt. eigenvalues --    0.09424   0.09781   0.10236   0.10804   0.11048
 Alpha virt. eigenvalues --    0.11318   0.11702   0.11873   0.12152   0.12466
 Alpha virt. eigenvalues --    0.12847   0.13108   0.13191   0.13619   0.13878
 Alpha virt. eigenvalues --    0.14106   0.14174   0.14686   0.14987   0.15326
 Alpha virt. eigenvalues --    0.15737   0.16392   0.16677   0.16892   0.17049
 Alpha virt. eigenvalues --    0.17592   0.17845   0.18175   0.18457   0.18763
 Alpha virt. eigenvalues --    0.19340   0.19498   0.19829   0.20340   0.20994
 Alpha virt. eigenvalues --    0.21454   0.21737   0.22288   0.23196   0.23340
 Alpha virt. eigenvalues --    0.23870   0.24281   0.24821   0.25534   0.25817
 Alpha virt. eigenvalues --    0.25919   0.26133   0.27012   0.28180   0.28515
 Alpha virt. eigenvalues --    0.29458   0.30301   0.30587   0.31128   0.31922
 Alpha virt. eigenvalues --    0.32230   0.32951   0.33041   0.33646   0.34189
 Alpha virt. eigenvalues --    0.34542   0.35819   0.36193   0.36660   0.37958
 Alpha virt. eigenvalues --    0.38503   0.38980   0.40156   0.40278   0.40420
 Alpha virt. eigenvalues --    0.43632   0.44845   0.45082   0.47199   0.47503
 Alpha virt. eigenvalues --    0.48429   0.49351   0.50474   0.51318   0.52768
 Alpha virt. eigenvalues --    0.53136   0.54083   0.54908   0.56582   0.57190
 Alpha virt. eigenvalues --    0.58076   0.58542   0.60383   0.60636   0.62975
 Alpha virt. eigenvalues --    0.63581   0.63915   0.64723   0.65392   0.66452
 Alpha virt. eigenvalues --    0.67302   0.67747   0.68495   0.68843   0.69570
 Alpha virt. eigenvalues --    0.70125   0.70789   0.71338   0.73253   0.73316
 Alpha virt. eigenvalues --    0.73495   0.74254   0.74904   0.75691   0.76272
 Alpha virt. eigenvalues --    0.77107   0.77507   0.78269   0.79090   0.80319
 Alpha virt. eigenvalues --    0.81705   0.83693   0.85818   0.89131   0.91946
 Alpha virt. eigenvalues --    0.93728   0.95162   0.97004   1.00090   1.02685
 Alpha virt. eigenvalues --    1.03017   1.03960   1.06674   1.08919   1.11986
 Alpha virt. eigenvalues --    1.12334   1.15114   1.16753   1.18232   1.19780
 Alpha virt. eigenvalues --    1.21612   1.22122   1.23092   1.25920   1.29976
 Alpha virt. eigenvalues --    1.30130   1.31789   1.33655   1.37374   1.42364
 Alpha virt. eigenvalues --    1.45092   1.45386   1.45923   1.46430   1.46878
 Alpha virt. eigenvalues --    1.48658   1.49400   1.49715   1.52948   1.53893
 Alpha virt. eigenvalues --    1.55006   1.56214   1.57484   1.58134   1.58294
 Alpha virt. eigenvalues --    1.59456   1.60059   1.61027   1.61173   1.61443
 Alpha virt. eigenvalues --    1.62356   1.62864   1.63653   1.64926   1.66058
 Alpha virt. eigenvalues --    1.66648   1.67477   1.68004   1.69865   1.71243
 Alpha virt. eigenvalues --    1.73427   1.74294   1.76704   1.77788   1.78882
 Alpha virt. eigenvalues --    1.79981   1.80800   1.82879   1.83556   1.84303
 Alpha virt. eigenvalues --    1.85791   1.87315   1.88935   1.89447   1.93102
 Alpha virt. eigenvalues --    1.94142   1.97333   1.98445   2.00862   2.03604
 Alpha virt. eigenvalues --    2.04454   2.06426   2.07170   2.08845   2.12775
 Alpha virt. eigenvalues --    2.14104   2.14894   2.16423   2.18204   2.18911
 Alpha virt. eigenvalues --    2.20099   2.21624   2.24860   2.26707   2.28674
 Alpha virt. eigenvalues --    2.30865   2.31796   2.35340   2.37757   2.38603
 Alpha virt. eigenvalues --    2.43129   2.45944   2.46725   2.47379   2.48264
 Alpha virt. eigenvalues --    2.48743   2.49896   2.50999   2.51662   2.52775
 Alpha virt. eigenvalues --    2.53141   2.54550   2.54816   2.56373   2.57421
 Alpha virt. eigenvalues --    2.57929   2.58925   2.60296   2.62094   2.64421
 Alpha virt. eigenvalues --    2.65714   2.66221   2.67426   2.69096   2.70564
 Alpha virt. eigenvalues --    2.72144   2.73556   2.75363   2.76305   2.77482
 Alpha virt. eigenvalues --    2.77732   2.78509   2.80216   2.82095   2.83880
 Alpha virt. eigenvalues --    2.87034   2.88704   2.91917   2.92900   2.93912
 Alpha virt. eigenvalues --    2.94809   2.96035   2.99513   3.01481   3.02228
 Alpha virt. eigenvalues --    3.03323   3.07564   3.10835   3.12851   3.15385
 Alpha virt. eigenvalues --    3.18061   3.24147   3.25655   3.33347   3.38172
 Alpha virt. eigenvalues --    3.45452   3.48131   3.53818   3.73763   3.76309
 Alpha virt. eigenvalues --    3.78632   3.78961   3.80336   3.80585   3.81204
 Alpha virt. eigenvalues --    3.83587   3.85702   3.87242   3.93297   3.97830
 Alpha virt. eigenvalues --    3.99355   4.04281   4.14386   4.23634   4.27135
 Alpha virt. eigenvalues --    4.30255   4.32535   4.41281   4.88613   5.09172
 Alpha virt. eigenvalues --    5.11620   5.37939   5.46127   5.81659  23.81142
 Alpha virt. eigenvalues --   23.82955  23.85697  23.86321  23.91089  23.92766
 Alpha virt. eigenvalues --   23.96475  23.97895  23.99209  49.86678  49.90691
  Beta  occ. eigenvalues --  -19.18165 -19.16152 -10.22293 -10.18809 -10.18500
  Beta  occ. eigenvalues --  -10.18214 -10.17882 -10.17630 -10.17256 -10.15995
  Beta  occ. eigenvalues --  -10.15467  -1.11522  -0.87377  -0.82998  -0.80723
  Beta  occ. eigenvalues --   -0.75226  -0.69007  -0.68522  -0.67273  -0.60666
  Beta  occ. eigenvalues --   -0.57101  -0.56488  -0.51836  -0.49083  -0.47620
  Beta  occ. eigenvalues --   -0.46524  -0.45098  -0.43912  -0.43450  -0.41540
  Beta  occ. eigenvalues --   -0.40241  -0.39460  -0.39215  -0.38618  -0.37985
  Beta  occ. eigenvalues --   -0.37290  -0.35927  -0.35584  -0.33599  -0.33404
  Beta  occ. eigenvalues --   -0.32833  -0.32037  -0.27986  -0.26570
  Beta virt. eigenvalues --   -0.11283  -0.01173  -0.00420   0.00162   0.00894
  Beta virt. eigenvalues --    0.01850   0.02029   0.02167   0.03345   0.03495
  Beta virt. eigenvalues --    0.03916   0.04114   0.05131   0.05322   0.05626
  Beta virt. eigenvalues --    0.05829   0.06500   0.06930   0.08019   0.08136
  Beta virt. eigenvalues --    0.08706   0.09472   0.09888   0.10281   0.10869
  Beta virt. eigenvalues --    0.11078   0.11344   0.11759   0.11920   0.12170
  Beta virt. eigenvalues --    0.12502   0.12914   0.13139   0.13236   0.13696
  Beta virt. eigenvalues --    0.13924   0.14121   0.14210   0.14724   0.15015
  Beta virt. eigenvalues --    0.15363   0.15781   0.16476   0.16716   0.16973
  Beta virt. eigenvalues --    0.17063   0.17650   0.17935   0.18232   0.18502
  Beta virt. eigenvalues --    0.18868   0.19428   0.19592   0.19963   0.20660
  Beta virt. eigenvalues --    0.21058   0.21515   0.21787   0.22377   0.23268
  Beta virt. eigenvalues --    0.23413   0.23969   0.24459   0.24893   0.25721
  Beta virt. eigenvalues --    0.25983   0.26073   0.26288   0.27201   0.28263
  Beta virt. eigenvalues --    0.29112   0.29536   0.30531   0.30643   0.31442
  Beta virt. eigenvalues --    0.32080   0.32296   0.33088   0.33137   0.33758
  Beta virt. eigenvalues --    0.34236   0.34889   0.36029   0.36362   0.36875
  Beta virt. eigenvalues --    0.38318   0.38652   0.39148   0.40250   0.40404
  Beta virt. eigenvalues --    0.40562   0.43732   0.44926   0.45409   0.47249
  Beta virt. eigenvalues --    0.47868   0.48560   0.49495   0.50543   0.51419
  Beta virt. eigenvalues --    0.52871   0.53241   0.54203   0.55002   0.56689
  Beta virt. eigenvalues --    0.57434   0.58225   0.58928   0.60441   0.60787
  Beta virt. eigenvalues --    0.63199   0.63680   0.64046   0.64927   0.65456
  Beta virt. eigenvalues --    0.66595   0.67414   0.68048   0.68539   0.68961
  Beta virt. eigenvalues --    0.69665   0.70237   0.70877   0.71527   0.73328
  Beta virt. eigenvalues --    0.73502   0.74158   0.74308   0.75040   0.75877
  Beta virt. eigenvalues --    0.76337   0.77151   0.77597   0.78349   0.79192
  Beta virt. eigenvalues --    0.80440   0.81809   0.83806   0.85914   0.89222
  Beta virt. eigenvalues --    0.92184   0.93819   0.95365   0.97241   1.00125
  Beta virt. eigenvalues --    1.02788   1.03178   1.04175   1.07162   1.09313
  Beta virt. eigenvalues --    1.12253   1.12662   1.15659   1.17399   1.18464
  Beta virt. eigenvalues --    1.19895   1.21849   1.22401   1.23345   1.26499
  Beta virt. eigenvalues --    1.30433   1.30689   1.32019   1.33966   1.37796
  Beta virt. eigenvalues --    1.42658   1.45166   1.45445   1.46089   1.46616
  Beta virt. eigenvalues --    1.46972   1.48953   1.49795   1.49979   1.53447
  Beta virt. eigenvalues --    1.54169   1.55239   1.56798   1.57623   1.58251
  Beta virt. eigenvalues --    1.58719   1.59642   1.60434   1.61107   1.61330
  Beta virt. eigenvalues --    1.61658   1.62627   1.63205   1.63775   1.65112
  Beta virt. eigenvalues --    1.66159   1.66919   1.67686   1.68145   1.70066
  Beta virt. eigenvalues --    1.71329   1.73545   1.74522   1.76822   1.77994
  Beta virt. eigenvalues --    1.78997   1.80065   1.80902   1.83002   1.83618
  Beta virt. eigenvalues --    1.84505   1.85935   1.87683   1.89344   1.89691
  Beta virt. eigenvalues --    1.93315   1.94341   1.97588   1.98728   2.01163
  Beta virt. eigenvalues --    2.03720   2.05004   2.06677   2.07311   2.08933
  Beta virt. eigenvalues --    2.12922   2.14528   2.15209   2.16575   2.18450
  Beta virt. eigenvalues --    2.19082   2.20698   2.21989   2.25472   2.26950
  Beta virt. eigenvalues --    2.28862   2.31099   2.32075   2.35531   2.37959
  Beta virt. eigenvalues --    2.38822   2.43384   2.46230   2.46788   2.47810
  Beta virt. eigenvalues --    2.48367   2.48874   2.49978   2.51090   2.51874
  Beta virt. eigenvalues --    2.52920   2.53459   2.54661   2.55033   2.56528
  Beta virt. eigenvalues --    2.57808   2.58142   2.59210   2.60380   2.62400
  Beta virt. eigenvalues --    2.64600   2.65966   2.66418   2.67685   2.69742
  Beta virt. eigenvalues --    2.70825   2.72341   2.73637   2.75458   2.76473
  Beta virt. eigenvalues --    2.77715   2.77809   2.78667   2.80335   2.82286
  Beta virt. eigenvalues --    2.84030   2.87249   2.88874   2.92134   2.93084
  Beta virt. eigenvalues --    2.94257   2.95256   2.96112   2.99766   3.01949
  Beta virt. eigenvalues --    3.02589   3.04459   3.07776   3.11018   3.13386
  Beta virt. eigenvalues --    3.15687   3.18105   3.24705   3.27312   3.33594
  Beta virt. eigenvalues --    3.38663   3.47247   3.48673   3.54031   3.73969
  Beta virt. eigenvalues --    3.76535   3.78693   3.79070   3.80479   3.80896
  Beta virt. eigenvalues --    3.81480   3.83607   3.85949   3.87836   3.94266
  Beta virt. eigenvalues --    3.98222   3.99772   4.04387   4.15497   4.24007
  Beta virt. eigenvalues --    4.27180   4.30265   4.32756   4.41701   4.89084
  Beta virt. eigenvalues --    5.10010   5.12457   5.40628   5.47529   5.82441
  Beta virt. eigenvalues --   23.81354  23.83032  23.85730  23.86980  23.91130
  Beta virt. eigenvalues --   23.92750  23.96483  23.97912  23.99213  49.87196
  Beta virt. eigenvalues --   49.91529
          Condensed to atoms (all electrons):
              1          2          3          4          5          6
     1  C    6.131529   0.384784   0.384825   0.404458  -0.537388  -0.043290
     2  H    0.384784   0.571161  -0.046441  -0.021200  -0.026871  -0.022013
     3  H    0.384825  -0.046441   0.556425  -0.034122   0.039562   0.009975
     4  H    0.404458  -0.021200  -0.034122   0.567432  -0.067849  -0.003634
     5  C   -0.537388  -0.026871   0.039562  -0.067849   7.748017   0.620287
     6  H   -0.043290  -0.022013   0.009975  -0.003634   0.620287   0.620352
     7  C    0.524599  -0.030124  -0.025272   0.004324  -1.611676  -0.078537
     8  H    0.026174   0.001226   0.001054   0.001135  -0.068197  -0.001494
     9  H    0.007894  -0.000561   0.002643  -0.000913   0.084194   0.019541
    10  C   -0.613320   0.041972  -0.025354  -0.005648   0.833105  -0.216265
    11  H   -0.019345   0.001051   0.001780  -0.002481   0.062522  -0.019179
    12  H   -0.039251   0.004070   0.001440   0.000409  -0.290419  -0.053414
    13  C    0.035553  -0.007404  -0.004215   0.005286  -0.418994   0.125631
    14  H    0.010420  -0.000282   0.000832  -0.000120  -0.028749  -0.000256
    15  H   -0.004704   0.000507  -0.000870  -0.000140   0.001399  -0.000522
    16  C   -0.010950   0.002366   0.000472  -0.000916  -0.171443  -0.030873
    17  H    0.002151  -0.000018   0.000072  -0.000002  -0.014141  -0.000022
    18  C   -0.002830   0.000126  -0.000206  -0.000048  -0.015206   0.000941
    19  H   -0.000359   0.000011   0.000009  -0.000007  -0.002431  -0.000317
    20  H    0.000028  -0.000002  -0.000004  -0.000003   0.000114   0.000133
    21  H   -0.000081   0.000003  -0.000011   0.000019   0.001360  -0.000006
    22  C   -0.070468   0.012213  -0.012400   0.006557  -0.670493  -0.079442
    23  H    0.048515  -0.003883   0.000937   0.003761   0.052774   0.035049
    24  H   -0.015465   0.001748   0.004178  -0.008329  -0.037732  -0.064519
    25  C   -0.008139  -0.000008  -0.000240   0.000251   0.034524   0.002830
    26  H   -0.000765   0.000026  -0.000002   0.000003  -0.003682  -0.000677
    27  H    0.001776  -0.000022  -0.000007  -0.000010   0.006571   0.000750
    28  H    0.000639  -0.000176  -0.000063  -0.000011   0.009891   0.005059
    29  O    0.041974  -0.001480   0.000811   0.000254  -0.094880  -0.011606
    30  O    0.046505  -0.000722   0.001356  -0.000820   0.090714  -0.010360
              7          8          9         10         11         12
     1  C    0.524599   0.026174   0.007894  -0.613320  -0.019345  -0.039251
     2  H   -0.030124   0.001226  -0.000561   0.041972   0.001051   0.004070
     3  H   -0.025272   0.001054   0.002643  -0.025354   0.001780   0.001440
     4  H    0.004324   0.001135  -0.000913  -0.005648  -0.002481   0.000409
     5  C   -1.611676  -0.068197   0.084194   0.833105   0.062522  -0.290419
     6  H   -0.078537  -0.001494   0.019541  -0.216265  -0.019179  -0.053414
     7  C   10.797187   0.296375   0.532292  -5.684143  -0.253693  -0.000599
     8  H    0.296375   0.593321  -0.041791   0.066113  -0.030248  -0.000460
     9  H    0.532292  -0.041791   0.516002  -0.247963   0.016737  -0.024471
    10  C   -5.684143   0.066113  -0.247963  17.302879   0.789603   0.227253
    11  H   -0.253693  -0.030248   0.016737   0.789603   0.690999  -0.035484
    12  H   -0.000599  -0.000460  -0.024471   0.227253  -0.035484   0.621897
    13  C    2.582637  -0.055588   0.070875  -7.284293  -0.373295  -0.064489
    14  H    0.119466   0.003120  -0.002054  -0.296431  -0.001481  -0.009911
    15  H   -0.058236   0.004983  -0.003621   0.043105  -0.007418   0.004920
    16  C   -0.336144   0.011709  -0.046869   1.008402   0.020957   0.163678
    17  H    0.050446   0.000312  -0.001147  -0.135443  -0.007670   0.008956
    18  C   -0.029395  -0.003862   0.003497  -0.453084   0.007630   0.010840
    19  H   -0.008445  -0.000949   0.000389   0.012142   0.003590   0.005111
    20  H    0.004095   0.000177   0.000008  -0.010759  -0.001644  -0.001026
    21  H   -0.008926   0.000755  -0.000206   0.005943  -0.000083  -0.000256
    22  C   -0.072000   0.036173  -0.100683   0.312357  -0.047462   0.094506
    23  H   -0.042652   0.002605   0.010485  -0.091706  -0.006669  -0.034363
    24  H    0.007546  -0.002297  -0.003636   0.116219   0.017054   0.020684
    25  C   -0.142191  -0.001656   0.001662   0.399379  -0.007361  -0.010514
    26  H   -0.019485  -0.000540   0.000038   0.015260   0.005019   0.007879
    27  H    0.022223   0.000860  -0.000066  -0.034222  -0.003345  -0.008228
    28  H    0.005234   0.000499   0.001302   0.055243  -0.012489  -0.027204
    29  O    0.006168   0.008539  -0.023734   0.181258   0.003458  -0.039899
    30  O    0.128225  -0.007582   0.008142  -0.087979   0.014863   0.049843
             13         14         15         16         17         18
     1  C    0.035553   0.010420  -0.004704  -0.010950   0.002151  -0.002830
     2  H   -0.007404  -0.000282   0.000507   0.002366  -0.000018   0.000126
     3  H   -0.004215   0.000832  -0.000870   0.000472   0.000072  -0.000206
     4  H    0.005286  -0.000120  -0.000140  -0.000916  -0.000002  -0.000048
     5  C   -0.418994  -0.028749   0.001399  -0.171443  -0.014141  -0.015206
     6  H    0.125631  -0.000256  -0.000522  -0.030873  -0.000022   0.000941
     7  C    2.582637   0.119466  -0.058236  -0.336144   0.050446  -0.029395
     8  H   -0.055588   0.003120   0.004983   0.011709   0.000312  -0.003862
     9  H    0.070875  -0.002054  -0.003621  -0.046869  -0.001147   0.003497
    10  C   -7.284293  -0.296431   0.043105   1.008402  -0.135443  -0.453084
    11  H   -0.373295  -0.001481  -0.007418   0.020957  -0.007670   0.007630
    12  H   -0.064489  -0.009911   0.004920   0.163678   0.008956   0.010840
    13  C   13.141707   0.484149   0.345971  -2.343864  -0.071530   0.679374
    14  H    0.484149   0.565116  -0.066463   0.128255   0.024514  -0.020606
    15  H    0.345971  -0.066463   0.639892  -0.068713  -0.016463   0.008686
    16  C   -2.343864   0.128255  -0.068713   7.343875   0.634108  -0.360186
    17  H   -0.071530   0.024514  -0.016463   0.634108   0.631878  -0.055755
    18  C    0.679374  -0.020606   0.008686  -0.360186  -0.055755   5.792681
    19  H   -0.077428   0.000480   0.001481   0.064136   0.014178   0.397633
    20  H    0.047613  -0.000323   0.000242  -0.073394  -0.009227   0.395519
    21  H   -0.015026   0.001952   0.001265  -0.044552  -0.015092   0.396539
    22  C    0.041093  -0.005721   0.004618   0.027396   0.001122  -0.001483
    23  H    0.033531   0.000673   0.000236  -0.006067   0.000188   0.000203
    24  H   -0.068206  -0.000277   0.000350   0.007872  -0.000467  -0.000311
    25  C    0.037492  -0.113451   0.041826  -0.314468  -0.179275  -0.108146
    26  H    0.052487  -0.010303  -0.000726  -0.137546  -0.017608   0.019394
    27  H   -0.086354   0.021063  -0.003564   0.150215   0.021915  -0.027862
    28  H   -0.026507   0.003383   0.000930  -0.067229  -0.011232   0.000391
    29  O   -0.136743   0.006152   0.001626   0.014209   0.000203   0.000026
    30  O   -0.087158   0.001589  -0.005635  -0.018347   0.002285  -0.003146
             19         20         21         22         23         24
     1  C   -0.000359   0.000028  -0.000081  -0.070468   0.048515  -0.015465
     2  H    0.000011  -0.000002   0.000003   0.012213  -0.003883   0.001748
     3  H    0.000009  -0.000004  -0.000011  -0.012400   0.000937   0.004178
     4  H   -0.000007  -0.000003   0.000019   0.006557   0.003761  -0.008329
     5  C   -0.002431   0.000114   0.001360  -0.670493   0.052774  -0.037732
     6  H   -0.000317   0.000133  -0.000006  -0.079442   0.035049  -0.064519
     7  C   -0.008445   0.004095  -0.008926  -0.072000  -0.042652   0.007546
     8  H   -0.000949   0.000177   0.000755   0.036173   0.002605  -0.002297
     9  H    0.000389   0.000008  -0.000206  -0.100683   0.010485  -0.003636
    10  C    0.012142  -0.010759   0.005943   0.312357  -0.091706   0.116219
    11  H    0.003590  -0.001644  -0.000083  -0.047462  -0.006669   0.017054
    12  H    0.005111  -0.001026  -0.000256   0.094506  -0.034363   0.020684
    13  C   -0.077428   0.047613  -0.015026   0.041093   0.033531  -0.068206
    14  H    0.000480  -0.000323   0.001952  -0.005721   0.000673  -0.000277
    15  H    0.001481   0.000242   0.001265   0.004618   0.000236   0.000350
    16  C    0.064136  -0.073394  -0.044552   0.027396  -0.006067   0.007872
    17  H    0.014178  -0.009227  -0.015092   0.001122   0.000188  -0.000467
    18  C    0.397633   0.395519   0.396539  -0.001483   0.000203  -0.000311
    19  H    0.560073  -0.033853  -0.046315   0.000780  -0.000212   0.000093
    20  H   -0.033853   0.560997  -0.020237  -0.000184   0.000049  -0.000029
    21  H   -0.046315  -0.020237   0.590390   0.000124   0.000006  -0.000017
    22  C    0.000780  -0.000184   0.000124   6.361083   0.355571   0.280684
    23  H   -0.000212   0.000049   0.000006   0.355571   0.608862  -0.089039
    24  H    0.000093  -0.000029  -0.000017   0.280684  -0.089039   0.692715
    25  C   -0.035419  -0.012356   0.027688   0.016051  -0.000946  -0.000676
    26  H    0.005157  -0.002451   0.002865   0.001898  -0.000284   0.000148
    27  H    0.007498   0.004748  -0.004099  -0.006390   0.000940  -0.000334
    28  H   -0.006537   0.002651  -0.002120   0.000168   0.000934  -0.001409
    29  O   -0.000204   0.000058  -0.000047   0.254424  -0.072977  -0.042484
    30  O    0.000792  -0.000181  -0.000073  -0.115069   0.009410   0.009386
             25         26         27         28         29         30
     1  C   -0.008139  -0.000765   0.001776   0.000639   0.041974   0.046505
     2  H   -0.000008   0.000026  -0.000022  -0.000176  -0.001480  -0.000722
     3  H   -0.000240  -0.000002  -0.000007  -0.000063   0.000811   0.001356
     4  H    0.000251   0.000003  -0.000010  -0.000011   0.000254  -0.000820
     5  C    0.034524  -0.003682   0.006571   0.009891  -0.094880   0.090714
     6  H    0.002830  -0.000677   0.000750   0.005059  -0.011606  -0.010360
     7  C   -0.142191  -0.019485   0.022223   0.005234   0.006168   0.128225
     8  H   -0.001656  -0.000540   0.000860   0.000499   0.008539  -0.007582
     9  H    0.001662   0.000038  -0.000066   0.001302  -0.023734   0.008142
    10  C    0.399379   0.015260  -0.034222   0.055243   0.181258  -0.087979
    11  H   -0.007361   0.005019  -0.003345  -0.012489   0.003458   0.014863
    12  H   -0.010514   0.007879  -0.008228  -0.027204  -0.039899   0.049843
    13  C    0.037492   0.052487  -0.086354  -0.026507  -0.136743  -0.087158
    14  H   -0.113451  -0.010303   0.021063   0.003383   0.006152   0.001589
    15  H    0.041826  -0.000726  -0.003564   0.000930   0.001626  -0.005635
    16  C   -0.314468  -0.137546   0.150215  -0.067229   0.014209  -0.018347
    17  H   -0.179275  -0.017608   0.021915  -0.011232   0.000203   0.002285
    18  C   -0.108146   0.019394  -0.027862   0.000391   0.000026  -0.003146
    19  H   -0.035419   0.005157   0.007498  -0.006537  -0.000204   0.000792
    20  H   -0.012356  -0.002451   0.004748   0.002651   0.000058  -0.000181
    21  H    0.027688   0.002865  -0.004099  -0.002120  -0.000047  -0.000073
    22  C    0.016051   0.001898  -0.006390   0.000168   0.254424  -0.115069
    23  H   -0.000946  -0.000284   0.000940   0.000934  -0.072977   0.009410
    24  H   -0.000676   0.000148  -0.000334  -0.001409  -0.042484   0.009386
    25  C    5.857568   0.426360   0.294923   0.428697  -0.005038   0.008320
    26  H    0.426360   0.591724  -0.047817  -0.029827  -0.000470   0.002708
    27  H    0.294923  -0.047817   0.573156  -0.034011   0.002338  -0.005637
    28  H    0.428697  -0.029827  -0.034011   0.559477  -0.001253  -0.006329
    29  O   -0.005038  -0.000470   0.002338  -0.001253   7.815538   0.102683
    30  O    0.008320   0.002708  -0.005637  -0.006329   0.102683   8.058943
 Mulliken atomic charges:
              1
     1  C   -0.685468
     2  H    0.139944
     3  H    0.142838
     4  H    0.152365
     5  C    0.475117
     6  H    0.195880
     7  C   -0.679301
     8  H    0.159534
     9  H    0.222016
    10  C   -0.223622
    11  H    0.194081
    12  H    0.418502
    13  C   -0.562303
    14  H    0.185265
    15  H    0.135039
    16  C    0.453913
    17  H    0.142764
    18  C   -0.631353
    19  H    0.138923
    20  H    0.149241
    21  H    0.128238
    22  C   -0.625023
    23  H    0.184071
    24  H    0.176548
    25  C   -0.637685
    26  H    0.141216
    27  H    0.152993
    28  H    0.151899
    29  O   -0.008903
    30  O   -0.186727
 Sum of Mulliken atomic charges =   0.00000
 Mulliken charges with hydrogens summed into heavy atoms:
              1
     1  C   -0.250322
     5  C    0.670997
     7  C   -0.297750
    10  C   -0.029541
    13  C   -0.241999
    16  C    0.596677
    18  C   -0.214952
    22  C   -0.264404
    25  C   -0.191577
    29  O   -0.008903
    30  O    0.231775
 Sum of Mulliken charges with hydrogens summed into heavy atoms =   0.00000
          Atomic-Atomic Spin Densities.
              1          2          3          4          5          6
     1  C   -0.014107   0.001137   0.000658  -0.000381  -0.008481  -0.001838
     2  H    0.001137  -0.000387   0.000265  -0.000237   0.001490   0.000361
     3  H    0.000658   0.000265   0.000068  -0.000154   0.000022  -0.000025
     4  H   -0.000381  -0.000237  -0.000154  -0.000238  -0.001816  -0.000273
     5  C   -0.008481   0.001490   0.000022  -0.001816   0.091269   0.006948
     6  H   -0.001838   0.000361  -0.000025  -0.000273   0.006948   0.001244
     7  C   -0.006253   0.001761   0.003830  -0.003285   0.139145   0.019334
     8  H   -0.001449  -0.001259  -0.000741   0.000599  -0.025729  -0.003885
     9  H    0.000566   0.000297   0.000190  -0.000202   0.010388   0.000851
    10  C    0.006569  -0.001438  -0.003987   0.003060  -0.150169  -0.022093
    11  H    0.003076   0.000347   0.000247  -0.000102   0.003880   0.000020
    12  H    0.005365  -0.000597  -0.000015   0.000234  -0.032381  -0.005736
    13  C    0.008524  -0.000241   0.001384  -0.000584   0.039703   0.008096
    14  H   -0.000956   0.000058   0.000054  -0.000052   0.004858   0.000659
[...]
 4335,0.00018061,0.00000913,-0.00002786,-0.00000590,-0.00012308,0.00004
 577,0.00004859,0.00001683,-0.00001099,-0.00008293,-0.00000111,-0.00000
 009,0.00000293,0.00002599,0.00002180,0.00002940,-0.00000278,-0.0000006
 7,-0.00000543,0.00002385,-0.00000134,-0.00000256,-0.00000793,0.0000031
 0,-0.00000010,0.08012652,-0.14789002,-0.09818440,0.00272364,-0.0022494
 5,-0.00253152,-0.08277311,0.15586126,-0.00038200,-0.00067206,0.0000424
 5,-0.00005642,-0.00008726,0.00004148,0.00006075,0.00015545,0.00008996,
 -0.00000723,-0.00022554,0.00010166,-0.00926354,0.01113198,0.00780664,-
 0.00039240,-0.00023208,0.00136097,-0.00011226,0.00289744,-0.00088277,-
 0.00090803,0.00045574,0.00030664,-0.00011928,0.00019222,0.00011190,0.0
 0012912,0.00177852,0.00041144,0.00009048,-0.00030103,-0.00003454,0.000
 92637,-0.00162701,-0.00009360,-0.00018239,-0.00039724,-0.00005372,-0.0
 0002358,0.00004152,0.00002471,0.00018564,-0.00005824,-0.00006866,-0.00
 006403,-0.00001868,-0.00002224,0.00000388,0.00000116,0.00000933,0.0000
 0442,0.00001158,0.00001211,-0.00000417,0.00000085,-0.00000468,0.000023
 03,0.00000601,0.00000473,-0.00000598,-0.00000566,-0.00000274,0.0745992
 4,-0.09599206,-0.14218561,0.01290166,-0.01578878,-0.01435739,-0.089126
 37,0.09725637,0.15415081,-0.00001935,0.00003484,0.00002541,0.00000718,
 -0.00000027,-0.00000736,0.00001434,-0.00000179,0.00000297,-0.00002958,
 -0.00000681,0.00000185,0.00000247,0.00000649,-0.00008390,-0.00004917,0
 .00000616,0.00004309,-0.00015449,0.00012052,0.00017357,0.00006990,0.00
 013729,-0.00004272,0.00011995,-0.00002968,0.00008956,0.00083657,-0.001
 16686,-0.00102799,-0.00015909,-0.00013884,0.00036960,-0.00059863,-0.00
 035808,-0.00044467,-0.00216797,-0.03036501,-0.00528135,0.00108907,0.00
 028598,0.00075501,-0.00516529,-0.00242020,-0.00259808,-0.07798269,-0.0
 0439933,-0.00055388,-0.00002529,0.00062604,0.00004701,-0.00077093,0.02
 927668,0.00508284,0.00090135,-0.00040395,-0.00069690,0.00070113,0.0008
 5900,0.00008558,-0.00450182,0.00273753,0.00327329,-0.00002449,-0.00007
 510,0.00007601,0.00002394,0.00001151,-0.00000874,-0.00002094,0.0000332
 6,-0.00000934,0.57094213,0.00005986,-0.00005585,-0.00001988,-0.0000100
 1,-0.00000994,0.00000239,-0.00000835,-0.00000040,-0.00000059,0.0000275
 0,0.00001457,-0.00000363,0.00004556,0.00011979,0.00010416,0.00001711,0
 .00000048,-0.00002029,0.00040926,-0.00024129,-0.00031567,-0.00000688,-
 0.00002856,-0.00002210,-0.00005118,-0.00000489,-0.00001237,0.00010435,
 0.00061751,0.00078269,-0.00005589,0.00013011,-0.00004361,0.00005383,0.
 00066097,0.00012549,-0.00624144,-0.01303426,-0.00475964,0.00133108,0.0
 0132160,0.00074505,-0.00035975,0.00121811,0.00026709,-0.00251694,-0.17
 625801,-0.01266009,-0.00053010,-0.01926717,-0.00256912,0.00531869,-0.0
 1703874,-0.00566021,-0.00131041,0.00130087,0.00094621,-0.00125510,0.00
 073142,0.00067160,0.00053016,0.00076052,-0.00039643,0.00011319,0.00011
 973,-0.00007776,-0.00001964,-0.00000956,0.00000297,-0.00001822,-0.0000
 2346,0.00002514,-0.00989763,0.45965490,0.00003371,-0.00000556,0.000011
 04,-0.00000889,-0.00002007,0.00000089,-0.00000567,-0.00000706,-0.00000
 826,-0.00000811,0.00000613,0.00000107,0.00002029,0.00004624,0.00000805
 ,0.00000624,0.00000941,-0.00000826,0.00005641,-0.00014826,0.00001146,-
 0.00004863,-0.00002161,-0.00007234,-0.00001789,-0.00003188,-0.00000271
 ,0.00024169,-0.00014922,0.00004277,-0.00007326,0.00018814,0.00007341,0
 .00006406,0.00123188,0.00036796,-0.00263873,-0.01673328,-0.00374707,0.
 00045095,-0.00114390,0.00052284,-0.00276403,-0.00154686,-0.00097233,0.
 00039787,-0.01024812,-0.08053596,0.00107493,0.02954835,0.00492375,0.00
 191069,-0.02115709,-0.00407932,-0.00049986,-0.00096951,0.00054573,-0.0
 0112382,0.00072551,0.00052231,0.00271698,-0.00199860,-0.00176344,0.000
 15088,0.00015076,-0.00026387,-0.00009808,-0.00005899,0.00002079,-0.000
 01647,0.00000253,0.00003899,-0.00245639,-0.01071765,0.56046113,0.00000
 950,0.00001249,0.00002020,-0.00000217,-0.00001963,0.00000112,0.0000001
 8,-0.00000391,-0.00000728,-0.00002452,0.00000554,0.00000153,0.00000028
 ,-0.00002478,-0.00003788,0.00001091,0.00000422,0.00000092,0.00003439,-
 0.00007311,0.00004836,-0.00005642,-0.00004489,-0.00002098,-0.00001565,
 0.00000703,-0.00000197,0.00013032,-0.00015029,-0.00023907,0.00000866,0
 .00011327,-0.00001089,0.00023866,0.00055176,-0.00000334,0.00106088,-0.
 00031827,0.00076555,0.00006627,0.00015232,0.00007702,-0.00012458,-0.00
 005192,-0.00014850,-0.00168149,0.00025124,0.00006428,0.00011257,-0.000
 47997,0.00030602,0.00067957,0.00080735,0.00048689,-0.00002939,-0.00001
 960,0.00002992,0.00055819,0.00000096,-0.00015342,0.00024463,-0.0001024
 1,0.00012814,0.00019504,0.00009181,-0.00014948,-0.00005403,-0.00003410
 ,0.00000478,-0.00003557,0.00000650,0.00004360,-0.23613219,-0.05238955,
 -0.10210683,0.25598127,-0.00002298,0.00003153,0.00001296,0.00000397,0.
 00000136,-0.00000225,0.00000560,-0.00000269,-0.00000178,-0.00002175,-0
 .00000549,0.00000283,-0.00000926,-0.00005108,-0.00003899,-0.00001515,0
 .00000377,0.00001322,-0.00021586,0.00020561,0.00010082,0.00005852,0.00
 005401,0.00000742,0.00004404,-0.00001851,0.00002739,0.00073173,-0.0004
 5110,-0.00038182,-0.00006246,-0.00000199,0.00012665,-0.00024620,-0.000
 09905,0.00003366,0.00141517,-0.00631417,-0.00014347,0.00014847,0.00003
 469,-0.00013755,-0.00183290,-0.00079302,-0.00095214,-0.02876104,-0.008
 21868,-0.01637796,0.00001872,0.00124935,0.00065563,-0.00146449,0.00148
 222,0.00016787,0.00017760,-0.00005966,-0.00000237,0.00092178,-0.000079
 83,-0.00003722,0.00003635,0.00026193,0.00044431,0.00002187,-0.00005472
 ,0.00006474,0.00001963,0.00001310,-0.00000951,-0.00000428,0.00001870,-
 0.00000586,-0.05092715,-0.06023061,-0.02717552,0.05726618,0.06734225,-
 0.00000772,0.00000961,0.00000707,0.00000181,-0.00000194,0.00000002,0.0
 0000205,-0.00000077,-0.00000254,-0.00001041,-0.00000088,0.00000179,-0.
 00000992,-0.00002420,-0.00003698,-0.00000476,-0.00000061,0.00000431,-0
 .00012285,0.00010027,0.00006572,0.00003591,0.00002467,0.00001644,0.000
 03340,0.00001349,0.00001076,0.00029373,-0.00006752,-0.00008325,-0.0000
 7670,-0.00011639,0.00007303,-0.00006521,-0.00011651,-0.00018866,0.0004
 2672,-0.00117216,0.00063342,0.00029970,0.00014312,0.00039946,-0.000451
 14,-0.00035798,0.00019213,-0.00331717,-0.00039194,-0.00327877,0.000402
 83,-0.00023422,0.00045627,-0.00073715,0.00030952,-0.00009596,-0.000086
 71,-0.00006199,-0.00007216,0.00053589,-0.00033553,0.00017173,0.0002697
 8,0.00018463,0.00009441,0.00003454,-0.00000339,0.00002768,0.00000665,0
 .00000194,-0.00000808,-0.00000801,0.00000589,0.00000370,-0.10147612,-0
 .02787922,-0.10212524,0.11250929,0.03178884,0.10672326,-0.00001004,0.0
 0000231,-0.00000825,0.00000151,0.00001050,-0.00000122,-0.00000072,-0.0
 0000015,0.00000117,0.00000521,-0.00000349,0.00000141,0.00000861,-0.000
 00410,0.00001811,0.00000496,0.00000097,-0.00000655,-0.00000669,0.00008
 277,-0.00009154,0.00003329,0.00000994,0.00001662,-0.00003301,-0.000029
 25,-0.00002667,-0.00010083,-0.00025867,0.00015796,0.00010105,0.0001401
 2,-0.00011504,-0.00022306,-0.00006814,0.00025805,0.00038108,-0.0003288
 3,0.00114428,0.00007184,-0.00007964,-0.00019499,-0.00001257,0.00013872
 ,-0.00010522,-0.00118039,-0.00107124,0.00157760,0.00065178,-0.00050700
 ,0.00000196,0.00004969,0.00034465,-0.00082159,0.00021221,0.00020910,0.
 00017503,-0.00000653,0.00006952,-0.00011865,-0.00008009,-0.00016294,0.
 00014279,-0.00005061,-0.00006244,0.00006134,0.00002383,0.00001973,-0.0
 0000151,0.00001464,0.00000080,-0.00001712,-0.04763005,0.00466918,-0.00
 911271,-0.00039907,0.01428569,-0.02447867,0.04668814,-0.00000859,0.000
 00593,0.00000295,0.00000252,0.00000450,-0.00000085,0.00000031,0.000000
 32,-0.00000107,-0.00000257,-0.00000132,0.00000035,-0.00000472,-0.00001
 680,-0.00000755,0.00000354,-0.00000194,-0.00000131,-0.00002098,0.00003
 371,0.00001654,0.00001034,-0.00000021,0.00000614,-0.00002411,-0.000010
 65,-0.00001208,-0.00022669,-0.00001040,-0.00009195,0.00017048,0.000008
 35,-0.00010660,-0.00012221,-0.00008587,0.00007369,0.00099485,0.0014693
 0,0.00124037,-0.00059459,0.00012983,-0.00081890,0.00021703,0.00044181,
 -0.00027586,0.00118165,-0.01837343,0.03002213,-0.00025937,-0.00642440,
 -0.00157792,-0.00079313,0.00147861,0.00125302,0.00050123,0.00004627,-0
 .00096248,0.00004928,-0.00004640,-0.00011253,-0.00019294,0.00040013,-0
 .00035439,-0.00003620,-0.00002616,0.00000945,-0.00000046,0.00000195,0.
 00000062,0.00000734,0.00000422,-0.00000685,0.00436798,-0.10691213,0.10
 790945,0.00055936,0.00359819,-0.00738889,-0.00465405,0.11947430,0.0000
 0832,-0.00001045,-0.00000196,-0.00000271,-0.00000744,0.00000133,-0.000
 00014,0.00000273,0.00000428,0.00000795,0.00000286,-0.00000351,-0.00000
 174,0.00002121,-0.00001611,-0.00000283,0.00000067,0.00000766,0.0000048
 5,-0.00009588,0.00005116,-0.00001392,-0.00000602,-0.00002008,0.0000187
 9,0.00002185,0.00001815,0.00001757,0.00048565,-0.00005255,-0.00004280,
 -0.00013640,0.00005906,0.00018206,-0.00011616,-0.00021074,0.00004032,-
 0.00045389,0.00098569,0.00043338,0.00043927,0.00020475,0.00017749,0.00
 006952,0.00016672,0.00036977,-0.00212924,0.00393017,-0.00000802,-0.001
 45352,0.00133664,-0.00010873,-0.00035614,0.00095789,-0.00040144,0.0003
 2524,0.00025813,0.00005138,0.00004464,-0.00009270,-0.00011410,0.000084
 83,0.00023408,-0.00000542,0.00004597,-0.00004084,-0.00001259,-0.000010
 61,0.00000619,-0.00000277,-0.00000765,0.00000183,-0.00850610,0.1083500
 2,-0.24232061,0.00010550,0.00617497,-0.01250313,0.00968537,-0.11969738
 ,0.26271574,0.00001169,-0.00001529,-0.00000646,-0.00000207,0.00000319,
 0.00000201,-0.00000289,0.00000071,-0.00000321,0.00001366,0.00000201,-0
 .00000039,0.00001856,0.00002066,0.00004062,0.00000140,-0.00000233,-0.0
 0000772,0.00007656,-0.00005198,-0.00012114,-0.00000881,-0.00001449,0.0
 0001136,-0.00002383,-0.00001209,-0.00001067,-0.00026790,-0.00046514,0.
 00007369,0.00000667,-0.00006087,-0.00007762,-0.00099956,-0.00009722,-0
 .00043120,0.00030344,0.00024588,-0.00023960,-0.00000469,-0.00000021,-0
 .00004282,0.00011022,0.00014433,0.00011001,0.00188498,-0.00102445,-0.0
 0262660,0.00011988,0.00057974,-0.00016565,0.00058574,0.00012822,-0.000
 47017,-0.00004270,-0.00011460,-0.00000167,0.00045540,-0.00020599,0.000
 02126,0.00027500,-0.00006212,0.00023125,-0.00004720,0.00005711,0.00002
 044,0.00000489,0.00000175,-0.00000507,0.00000434,-0.00001163,-0.000002
 82,-0.19906923,0.06217740,0.11417083,-0.02048670,0.00811324,0.01608782
 ,0.00113547,-0.00119434,-0.00144100,0.21636216,-0.00000587,-0.00000617
 ,-0.00000627,0.00000150,0.00000553,-0.00000195,0.00000190,0.00000383,0
 .00000741,0.00001212,-0.00000183,-0.00000405,-0.00002829,0.00001038,-0
 .00001729,-0.00002022,-0.00000185,0.00001251,-0.00018486,0.00000787,0.
 00021109,0.00004464,0.00005591,-0.00000400,0.00009481,0.00002842,0.000
 05824,-0.00013164,0.00053150,-0.00029391,-0.00017859,-0.00045825,0.000
 21423,-0.00045214,-0.00049852,-0.00029927,0.00063687,0.00144589,0.0003
 1686,-0.00012289,-0.00011173,-0.00003279,0.00016292,0.00002781,0.00025
 700,0.02563461,-0.00869794,-0.01893573,0.00005412,0.00131370,0.0006546
 9,-0.00178404,-0.00662409,-0.00017672,-0.00016522,0.00007488,-0.000193
 44,-0.00007782,0.00008151,0.00029475,0.00165303,-0.00076831,-0.0012736
 4,-0.00015495,-0.00002359,0.00001769,0.00000953,-0.00000014,0.00001042
 ,0.00002579,-0.00000166,-0.00002221,0.06140607,-0.07301441,-0.04679036
 ,-0.00570592,0.00188622,0.00540529,-0.01284517,0.00479152,0.00841564,-
 0.06771641,0.07955360,-0.00003087,0.00001052,-0.00001928,0.00000736,0.
 00002662,-0.00000423,0.00000407,0.00000115,0.00000622,0.00000796,-0.00
 000868,0.00000239,-0.00000816,-0.00002630,0.00002855,-0.00001366,0.000
 00265,0.00000240,-0.00015786,0.00026962,-0.00003332,0.00010545,0.00008
 812,0.00004596,0.00003513,-0.00002414,0.00001317,0.00017082,-0.0003702
 6,0.00011557,0.00001589,0.00003641,0.00008395,-0.00081020,-0.00090364,
 0.00004299,0.00064202,0.00019876,-0.00002157,0.00003451,-0.00008443,-0
 .00007965,-0.00012164,-0.00000886,0.00003793,0.00207718,-0.00026253,-0
 .00344906,-0.00042651,-0.00026647,0.00056545,-0.00068653,-0.00126821,0
 .00068839,-0.00028614,0.00019790,0.00045396,0.00027520,0.00008275,0.00
 001916,0.00047690,-0.00016841,0.00023738,-0.00017866,-0.00016349,0.000
 29090,0.00010179,0.00006432,-0.00002415,0.00002958,0.00000565,-0.00004
 654,0.11276566,-0.04694226,-0.13120638,-0.01175929,0.00567291,0.009338
 51,0.02204942,-0.00903042,-0.01590703,-0.12492395,0.05215379,0.1387973
 0,0.00242886,-0.00185221,0.00164920,-0.00090612,-0.00074713,-0.0000584
 6,-0.00006918,-0.00002735,-0.00016870,0.00076738,0.00064711,-0.0002437
 2,-0.00434982,-0.01200885,0.00019479,-0.00025589,0.00113316,-0.0000021
 3,-0.00281027,0.00321089,0.00013828,0.00169176,0.00068488,0.00045366,0
 .00059285,0.00019536,-0.00034999,0.00389620,-0.02516407,-0.00473119,-0
 .00083361,0.00446457,0.00063107,-0.02838501,0.02962411,-0.02155760,0.0
 0099906,0.00477840,0.00013825,-0.00020225,-0.00041675,0.00020920,-0.00
 177247,0.00016762,0.00072534,0.00062112,0.00013136,0.00055497,0.000031
 45,-0.00006565,-0.00000813,-0.00010908,-0.00014379,-0.00020824,0.00000
 762,-0.00001196,0.00008066,-0.00024784,-0.00005054,-0.00001266,0.00008
 262,-0.00000981,0.00000524,-0.12769198,-0.04095854,0.06560066,-0.02350
 034,-0.01259137,0.00377549,-0.03095820,-0.01786174,0.01385127,0.000137
 73,-0.00016881,-0.00084139,-0.00036478,-0.00005646,0.00009228,-0.00005
 045,-0.00001397,0.00016956,-0.00019987,0.00034238,0.00044941,0.3025377
 4,0.00393929,-0.00627022,0.00583718,-0.00250665,-0.00185740,-0.0003578
 7,0.00010952,0.00016577,-0.00040949,-0.00000573,0.00040255,0.00007734,
 -0.03424759,-0.01982253,0.01067828,0.00010173,-0.00034284,0.00115905,-
 0.00197206,0.00459850,-0.00203790,0.00032610,0.00032719,0.00168678,0.0
 0057906,-0.00026757,0.00118217,0.00169834,-0.01432488,0.00078603,0.000
 09001,0.00110641,0.00018704,0.00253641,0.02117190,0.01512723,0.0003829
 6,0.00319929,0.00040322,-0.00024119,-0.00021992,0.00000680,-0.00099307
 ,0.00014060,0.00036406,0.00026531,-0.00020062,0.00022244,0.00003213,0.
 00003218,-0.00001562,-0.00000145,0.00004000,-0.00004321,-0.00000026,-0
 .00001608,0.00001263,-0.00004603,-0.00003054,-0.00000407,0.00001857,0.
 00000994,0.00000974,-0.03084150,-0.08250729,0.04039235,-0.00894698,-0.
 00394822,0.00073083,0.00382503,0.01111617,-0.00015597,0.00005177,-0.00
 000083,-0.00030341,-0.00013280,0.00002365,0.00001640,0.00004711,-0.000
 01456,-0.00001488,0.00001077,-0.00002997,0.00024080,0.09202196,0.13669
 729,-0.00146021,0.00116274,-0.00236723,0.00053109,0.00064837,0.0007090
 4,-0.00006059,0.00039214,0.00034623,0.00000587,-0.00015223,-0.00017451
 ,0.01699150,0.00997729,-0.00439597,-0.00017191,0.00011596,-0.00015562,
 -0.00079605,0.00266029,-0.00012164,0.00142226,0.00036002,0.00159744,-0
 .00002701,0.00026928,0.00136601,0.00125578,-0.02666887,-0.00322589,-0.
 00057104,0.00402896,0.00067381,-0.02607943,0.03766182,-0.01338017,0.00
 067270,0.00509174,-0.00029051,-0.00043880,-0.00029351,0.00036218,-0.00
 169737,0.00017832,0.00068739,0.00060213,0.00030503,0.00066080,0.000100
 67,-0.00012451,0.00007425,-0.00018129,-0.00022923,-0.00022568,-0.00001
 513,0.00000095,0.00009480,-0.00023421,-0.00002640,0.00001548,0.0001090
 2,-0.00008969,-0.00003408,0.04107416,0.02899368,-0.11859639,-0.0262985
 9,-0.01469635,0.00767059,0.02558981,0.01436887,-0.00833155,0.00016935,
 -0.00002788,-0.00020605,-0.00004464,-0.00023153,0.00003132,-0.00026017
 ,-0.00000968,0.00030552,-0.00008604,0.00032161,-0.00029427,0.02673461,
 -0.04280615,0.29440649,-0.00047570,0.00196275,-0.00164068,0.00075711,0
 .00046453,0.00010112,-0.00017389,-0.00007424,0.00014282,-0.00035020,-0
 .00012239,0.00001090,0.00565701,0.00151412,0.00152270,0.00018950,-0.00
 065283,-0.00074638,0.00080711,-0.00928591,0.00205724,-0.00166209,-0.00
 019252,-0.00251237,-0.00021632,-0.00017258,-0.00087540,-0.01478354,0.0
 8546809,0.00432967,0.00071830,-0.00729255,-0.00117765,0.00870249,-0.05
 847167,0.00781952,0.00091709,-0.00773642,-0.00098845,0.00042496,0.0000
 5788,-0.00008427,0.00188528,0.00018535,-0.00047398,-0.00092913,-0.0002
 7323,-0.00069347,-0.00007423,0.00019397,-0.00005936,0.00021277,0.00029
 103,0.00023325,0.00001747,-0.00001127,-0.00011410,0.00026690,0.0000231
 3,-0.00001247,-0.00015093,0.00011419,0.00003896,-0.04160235,-0.0166076
 4,-0.04031771,-0.00619667,-0.00414786,0.00401460,0.00546508,0.00299352
 ,-0.00214251,-0.00034460,-0.00001725,0.00052522,0.00007524,0.00037142,
 -0.00017985,0.00040080,0.00008302,-0.00060800,-0.00021458,-0.00050626,
 0.00015513,-0.09108721,-0.02610076,-0.05683649,0.13176433,0.00013927,-
 0.00043464,-0.00040122,-0.00005507,-0.00003326,0.00013861,-0.00010570,
 -0.00001872,0.00012897,0.00011814,0.00007493,-0.00005440,-0.00219432,-
 0.00029480,-0.00135797,-0.00051335,0.00000270,-0.00064549,0.00227658,0
 .00422369,0.00078023,0.00013876,0.00048230,0.00075148,-0.00027451,-0.0
 0050416,-0.00013274,0.02834941,-0.10503390,-0.00261149,-0.00113225,0.0
 0610852,0.00126156,-0.02173543,0.01415532,-0.02534985,-0.00195516,0.00
 320985,0.00175954,0.00051359,0.00027192,-0.00096304,-0.00002387,-0.000
 59354,-0.00089775,0.00021702,-0.00019039,-0.00023214,-0.00005102,0.000
 02248,-0.00003199,0.00012051,-0.00001627,0.00007001,-0.00001641,-0.000
 01106,0.00000890,0.00001783,-0.00002054,-0.00000832,-0.00000716,0.0000
 8725,0.00002013,-0.01343293,-0.00500481,-0.02118433,-0.00409901,-0.001
 38636,0.00179629,0.00145663,0.00059425,0.00164258,0.00022957,-0.000520
 49,-0.00059147,-0.00027888,0.00017403,0.00015051,0.00004400,0.00003530
 ,0.00001058,-0.00043583,0.00041989,0.00047615,-0.02525282,-0.04917798,
 -0.02118103,0.03794241,0.13337845,-0.00108377,0.00167236,-0.00019498,0
 .00072294,0.00044315,-0.00005090,0.00032079,0.00020987,0.00013838,-0.0
 0034489,-0.00017500,0.00002736,0.00485941,0.00242876,0.00042292,0.0003
 3498,-0.00077777,0.00093303,0.00223811,-0.00748943,0.00145880,-0.00180
 202,-0.00018759,-0.00209672,-0.00040353,-0.00008025,-0.00064677,-0.005
 29626,0.04110822,0.00676013,0.00059247,-0.00532015,0.00016094,0.015566
 00,-0.05331885,-0.01822559,-0.00100196,-0.00725698,-0.00015796,0.00020
 680,0.00053057,0.00008153,0.00218647,0.00008264,-0.00068224,-0.0010068
 2,-0.00019714,-0.00066790,-0.00002390,0.00006229,0.00001304,0.00020663
 ,0.00033694,0.00026098,-0.00001409,-0.00000504,-0.00007531,0.00030192,
 0.00003921,-0.00000255,-0.00016308,0.00009885,0.00004752,-0.02089279,-
 0.00875733,0.00472320,0.00141113,0.00072395,0.00395084,0.00155869,0.00
 222110,0.00156471,0.00023274,0.00010559,-0.00024037,0.00009047,0.00020
 377,0.00014375,0.00006881,-0.00007802,-0.00007573,-0.00010548,-0.00029
 960,0.00031531,-0.08727173,-0.03297181,-0.15720179,0.08851198,0.066647
 68,0.15931635\\0.00000218,-0.00000498,0.00000127,-0.00000029,-0.000006
 71,-0.00000669,0.00000002,0.00000028,-0.00000539,0.00000109,-0.0000034
 9,-0.00000049,-0.00000158,-0.00000162,-0.00001468,0.00000189,0.0000037
 7,-0.00000430,-0.00000033,0.00001286,-0.00000155,0.00000019,0.00000191
 ,-0.00000340,0.00000005,-0.00000073,-0.00000440,-0.00000727,-0.0000303
 5,-0.00001106,0.00000681,0.00000235,0.00000100,-0.00001040,0.00001290,
 0.00002757,0.00000752,0.00000836,-0.00000062,-0.00000261,0.00000360,-0
 .00000061,0.00000273,0.00000242,-0.00000212,0.00000006,0.00000149,-0.0
 0000130,-0.00000132,0.00000077,0.00000018,0.00000063,0.00000208,-0.000
 00105,0.00000026,0.00000587,0.00000142,-0.00000004,0.00000219,0.000000
 04,0.00000068,0.00000309,-0.00000380,-0.00000288,0.00000811,0.00001786
 ,0.00000888,0.00000448,0.00000093,0.00000170,-0.00000101,0.00001368,0.
 00000088,0.00000120,-0.00000134,-0.00000112,-0.00000057,0.00000473,-0.
 00000124,0.00000213,0.00000607,-0.00000106,-0.00000225,0.00000537,0.00
 000593,-0.00001342,-0.00001608,-0.00001139,-0.00001474,-0.00000126\\\@


 THE POLHOLDE ROLLS WITHOUT SLIPPING ON THE HERPOLHOLDE LYING IN
 THE INVARIABLE PLANE.
 H.GOLDSTEIN, "CLASSICAL MECHANICS", PG 161
 Job cpu time:  0 days  7 hours 36 minutes 49.4 seconds.
 File lengths (MBytes):  RWF=    713 Int=      0 D2E=      0 Chk=     12 Scr=      1
 Normal termination of Gaussian 09 at Fri Feb 14 00:35:44 2014.
