 Entering Gaussian System, Link 0=g09
 Initial command:
 /usr/caen/gaussian-09revc/g09/l1.exe /scratch/avioli_flux/hetanjin/scratch/Gau-55268.inp -scrdir=/scratch/avioli_flux/hetanjin/scratch/
 Entering Link 1 = /usr/caen/gaussian-09revc/g09/l1.exe PID=     55269.
  
 Copyright (c) 1988,1990,1992,1993,1995,1998,2003,2009,2011,
            Gaussian, Inc.  All Rights Reserved.
  
 This is part of the Gaussian(R) 09 program.  It is based on
 the Gaussian(R) 03 system (copyright 2003, Gaussian, Inc.),
 the Gaussian(R) 98 system (copyright 1998, Gaussian, Inc.),
 the Gaussian(R) 94 system (copyright 1995, Gaussian, Inc.),
 the Gaussian 92(TM) system (copyright 1992, Gaussian, Inc.),
 the Gaussian 90(TM) system (copyright 1990, Gaussian, Inc.),
 the Gaussian 88(TM) system (copyright 1988, Gaussian, Inc.),
 the Gaussian 86(TM) system (copyright 1986, Carnegie Mellon
 University), and the Gaussian 82(TM) system (copyright 1983,
 Carnegie Mellon University). Gaussian is a federally registered
 trademark of Gaussian, Inc.
  
 This software contains proprietary and confidential information,
 including trade secrets, belonging to Gaussian, Inc.
  
 This software is provided under written license and may be
 used, copied, transmitted, or stored only in accord with that
 written license.
  
 The following legend is applicable only to US Government
 contracts under FAR:
  
                    RESTRICTED RIGHTS LEGEND
  
 Use, reproduction and disclosure by the US Government is
 subject to restrictions as set forth in subparagraphs (a)
 and (c) of the Commercial Computer Software - Restricted
 Rights clause in FAR 52.227-19.
  
 Gaussian, Inc.
 340 Quinnipiac St., Bldg. 40, Wallingford CT 06492
  
  
 ---------------------------------------------------------------
 Warning -- This program may not be used in any manner that
 competes with the business of Gaussian, Inc. or will provide
 assistance to any competitor of Gaussian, Inc.  The licensee
 of this program is prohibited from giving any competitor of
 Gaussian, Inc. access to this program.  By using this program,
 the user acknowledges that Gaussian, Inc. is engaged in the
 business of creating and licensing software in the field of
 computational chemistry and represents and warrants to the
 licensee that it is not a competitor of Gaussian, Inc. and that
 it will not use this program in any manner prohibited above.
 ---------------------------------------------------------------
  

 Cite this work as:
 Gaussian 09, Revision C.01,
 M. J. Frisch, G. W. Trucks, H. B. Schlegel, G. E. Scuseria, 
 M. A. Robb, J. R. Cheeseman, G. Scalmani, V. Barone, B. Mennucci, 
 G. A. Petersson, H. Nakatsuji, M. Caricato, X. Li, H. P. Hratchian, 
 A. F. Izmaylov, J. Bloino, G. Zheng, J. L. Sonnenberg, M. Hada, 
 M. Ehara, K. Toyota, R. Fukuda, J. Hasegawa, M. Ishida, T. Nakajima, 
 Y. Honda, O. Kitao, H. Nakai, T. Vreven, J. A. Montgomery, Jr., 
 J. E. Peralta, F. Ogliaro, M. Bearpark, J. J. Heyd, E. Brothers, 
 K. N. Kudin, V. N. Staroverov, T. Keith, R. Kobayashi, J. Normand, 
 K. Raghavachari, A. Rendell, J. C. Burant, S. S. Iyengar, J. Tomasi, 
 M. Cossi, N. Rega, J. M. Millam, M. Klene, J. E. Knox, J. B. Cross, 
 V. Bakken, C. Adamo, J. Jaramillo, R. Gomperts, R. E. Stratmann, 
 O. Yazyev, A. J. Austin, R. Cammi, C. Pomelli, J. W. Ochterski, 
 R. L. Martin, K. Morokuma, V. G. Zakrzewski, G. A. Voth, 
 P. Salvador, J. J. Dannenberg, S. Dapprich, A. D. Daniels, 
 O. Farkas, J. B. Foresman, J. V. Ortiz, J. Cioslowski, 
 and D. J. Fox, Gaussian, Inc., Wallingford CT, 2010.
 
 ******************************************
 Gaussian 09:  EM64L-G09RevC.01 23-Sep-2011
                15-Feb-2014 
 ******************************************
 %mem=30GB
 %nprocshared=8
 Will use up to    8 processors via shared memory.
 %chk=TS_1_1c.chk
 ----------------------------------------------
 #p opt=(calcfc,qst3) freq ub3lyp/6-311++g(d,p)
 ----------------------------------------------
 1/5=1,10=4,14=-1,18=20,26=3,27=203,38=1/1,3;
 2/9=110,12=2,17=6,18=5,40=1/2;
 3/5=4,6=6,7=1111,11=2,16=1,25=1,30=1,71=2,74=-5,116=2/1,2,3;
 4//1;
 5/5=2,38=5/2;
 8/6=4,10=90,11=11/1;
 11/6=1,8=1,9=11,15=111,16=1/1,2,10;
 10/6=1,7=6,13=1/2;
 6/7=2,8=2,9=2,10=2,28=1/1;
 7/10=1,18=20,25=1/1,2,3,16;
 1/5=1,10=4,14=-1,18=20,27=203/3(2);
 2/9=110/2;
 99//99;
 2/9=110/2;
 3/5=4,6=6,7=1111,11=2,16=1,25=1,30=1,71=1,74=-5,116=2/1,2,3;
 4/5=5,16=3/1;
 5/5=2,38=5/2;
 7//1,2,3,16;
 1/5=1,14=-1,18=20,27=203/3(-5);
 2/9=110/2;
 6/7=2,8=2,9=2,10=2,19=2,28=1/1;
 99/9=1/99;
 Leave Link    1 at Sat Feb 15 18:02:11 2014, MaxMem= 4026531840 cpu:       0.8
 (Enter /usr/caen/gaussian-09revc/g09/l101.exe)
 --------------------------------------------------------
 TS_1_1c using B3LYP/6-311++g(d,p) to find TS | reactants
 --------------------------------------------------------
 Charge =  0 Multiplicity = 2
 Symbolic Z-Matrix:
 C                    -3.17301  -1.66954  -0.19397 
 H                    -2.87617  -2.71161  -0.33638 
 H                    -3.39945  -1.24766  -1.17651 
 H                    -4.09526  -1.66148   0.39469 
 C                    -2.05413  -0.87986   0.50238 
 H                    -1.87109  -1.34161   1.4836 
 C                    -0.73961  -0.93993  -0.29882 
 H                    -0.55589  -1.99184  -0.54858 
 H                    -0.8744   -0.42299  -1.25598 
 C                     0.49652  -0.37953   0.41648 
 H                     0.59872  -0.86202   1.39833 
 H                     0.35867   0.68881   0.60351 
 C                     1.78599  -0.59801  -0.38576 
 H                     1.69941  -0.08941  -1.35556 
 H                     1.88007  -1.66787  -0.61185 
 C                     3.08034  -0.13145   0.30742 
 H                     3.12047  -0.61431   1.29398 
 C                     4.31064  -0.59099  -0.48791 
 H                     4.31678  -0.14434  -1.48839 
 H                     5.23878  -0.29712   0.0113 
 H                     4.3251   -1.67831  -0.60927 
 C                    -2.50965   0.54486   0.83292 
 H                    -1.81696   1.27955   0.41538 
 H                    -3.52489   0.75803   0.49975 
 C                     3.11823   1.38842   0.52354 
 H                     4.04969   1.68942   1.01217 
 H                     3.05973   1.91767  -0.43412 
 H                     2.29233   1.73843   1.1474 
 O                    -2.47092   0.80574   2.27153 
 O                    -3.639     0.61294   2.85368 
 
 --------
 products
 --------
 Charge =  0 Multiplicity = 2
 Symbolic Z-Matrix:
 C                    -3.03789  -1.85868  -0.12174 
 H                    -2.65621  -2.88547  -0.11092 
 H                    -3.39964  -1.66876  -1.14453 
 H                    -3.9106   -1.8059    0.53527 
 C                    -1.97923  -0.87699   0.27215 
 H                    -2.11393  -1.24613   2.6287 
 C                    -0.62348  -1.02397  -0.35589 
 H                    -0.39624  -2.09558  -0.43626 
 H                    -0.67864  -0.66353  -1.39847 
 C                     0.55033  -0.31549   0.33742 
 H                     0.58692  -0.61623   1.39234 
 H                     0.38092   0.76436   0.32264 
 C                     1.89519  -0.6374   -0.3265 
 H                     1.8636   -0.32643  -1.37982 
 H                     2.02878  -1.72667  -0.33681 
 C                     3.12883  -0.00187   0.34268 
 H                     3.10697  -0.2752    1.40692 
 C                     4.42098  -0.57165  -0.25973 
 H                     4.49082  -0.33538  -1.32737 
 H                     5.30577  -0.15411   0.2301 
 H                     4.46333  -1.66007  -0.15681 
 C                    -2.413     0.37954   0.94209 
 H                    -2.03057   1.26075   0.41351 
 H                    -3.49846   0.46522   1.03332 
 C                     3.12426   1.53101   0.2489 
 H                     4.01203   1.95439   0.72812 
 H                     3.1267    1.8544   -0.79832 
 H                     2.24887   1.97184   0.73201 
 O                    -1.82162   0.58027   2.25602 
 O                    -2.35727  -0.45819   3.13374 
 
 -------------
 intermediates
 -------------
 Charge =  0 Multiplicity = 2
 Symbolic Z-Matrix:
 C                    -3.03159   1.68913  -0.14241 
 H                    -2.77213   2.35402  -0.97362 
 H                    -3.13926   2.31766   0.75671 
 H                    -4.00478   1.23151  -0.34716 
 C                    -1.97248   0.63227   0.07588 
 H                    -2.06944  -0.24039  -0.97761 
 C                    -0.55161   1.12936   0.24882 
 H                    -0.41689   2.0307   -0.36469 
 H                    -0.42073   1.46656   1.29334 
 C                     0.56037   0.12071  -0.09396 
 H                     0.43721  -0.20642  -1.13561 
 H                     0.45017  -0.77963   0.52124 
 C                     1.96218   0.71697   0.09573 
 H                     2.10193   0.99259   1.1528 
 H                     2.02329   1.65714  -0.4721 
 C                     3.12685  -0.19363  -0.34168 
 H                     2.95046  -0.47759  -1.39086 
 C                     4.45688   0.5728   -0.28096 
 H                     4.68329   0.88457   0.74727 
 H                     5.28997  -0.04912  -0.6291 
 H                     4.42862   1.47534  -0.90329 
 C                    -2.4426   -0.5562    0.94012 
 H                    -1.59207  -1.16079   1.27716 
 H                    -3.0574   -0.26433   1.80102 
 C                     3.21086  -1.48409   0.4879 
 H                     4.05494  -2.10336   0.16233 
 H                     3.3596   -1.25498   1.55175 
 H                     2.30434  -2.09215   0.39915 
 O                    -3.29079  -1.31535   0.07667 
 O                    -2.52475  -1.37782  -1.12736 
 
 NAtoms=     30 NQM=        0 NQMF=       0 NMMI=     30 NMMIF=      0
                NMic=       0 NMicF=      0.
                    Isotopes and Nuclear Properties:
 (Nuclear quadrupole moments (NQMom) in fm**2, nuclear magnetic moments (NMagM)
  in nuclear magnetons)

  Atom         1           2           3           4           5           6           7           8           9          10
 IAtWgt=          12           1           1           1          12           1          12           1           1          12
 AtmWgt=  12.0000000   1.0078250   1.0078250   1.0078250  12.0000000   1.0078250  12.0000000   1.0078250   1.0078250  12.0000000
 NucSpn=           0           1           1           1           0           1           0           1           1           0
 AtZEff=   0.0000000   0.0000000   0.0000000   0.0000000   0.0000000   0.0000000   0.0000000   0.0000000   0.0000000   0.0000000
 NQMom=    0.0000000   0.0000000   0.0000000   0.0000000   0.0000000   0.0000000   0.0000000   0.0000000   0.0000000   0.0000000
 NMagM=    0.0000000   2.7928460   2.7928460   2.7928460   0.0000000   2.7928460   0.0000000   2.7928460   2.7928460   0.0000000

  Atom        11          12          13          14          15          16          17          18          19          20
 IAtWgt=           1           1          12           1           1          12           1          12           1           1
 AtmWgt=   1.0078250   1.0078250  12.0000000   1.0078250   1.0078250  12.0000000   1.0078250  12.0000000   1.0078250   1.0078250
 NucSpn=           1           1           0           1           1           0           1           0           1           1
 AtZEff=   0.0000000   0.0000000   0.0000000   0.0000000   0.0000000   0.0000000   0.0000000   0.0000000   0.0000000   0.0000000
 NQMom=    0.0000000   0.0000000   0.0000000   0.0000000   0.0000000   0.0000000   0.0000000   0.0000000   0.0000000   0.0000000
 NMagM=    2.7928460   2.7928460   0.0000000   2.7928460   2.7928460   0.0000000   2.7928460   0.0000000   2.7928460   2.7928460

  Atom        21          22          23          24          25          26          27          28          29          30
 IAtWgt=           1          12           1           1          12           1           1           1          16          16
 AtmWgt=   1.0078250  12.0000000   1.0078250   1.0078250  12.0000000   1.0078250   1.0078250   1.0078250  15.9949146  15.9949146
 NucSpn=           1           0           1           1           0           1           1           1           0           0
 AtZEff=   0.0000000   0.0000000   0.0000000   0.0000000   0.0000000   0.0000000   0.0000000   0.0000000   0.0000000   0.0000000
 NQMom=    0.0000000   0.0000000   0.0000000   0.0000000   0.0000000   0.0000000   0.0000000   0.0000000   0.0000000   0.0000000
 NMagM=    2.7928460   0.0000000   2.7928460   2.7928460   0.0000000   2.7928460   2.7928460   2.7928460   0.0000000   0.0000000
 Leave Link  101 at Sat Feb 15 18:02:12 2014, MaxMem= 4026531840 cpu:       2.5
 (Enter /usr/caen/gaussian-09revc/g09/l103.exe)

 GradGradGradGradGradGradGradGradGradGradGradGradGradGradGradGradGradGrad
 Berny optimization.
 Initialization pass.
                           ----------------------------
                           !    Initial Parameters    !
                           ! (Angstroms and Degrees)  !
 --------------------------                            --------------------------
 ! Name  Definition        TS        Reactant  Product Derivative Info.         !
 --------------------------------------------------------------------------------
 ! R1    R(1,2)             1.0956    1.0928    1.0955 calculate D2E/DX2 analyti!
 ! R2    R(1,3)             1.1023    1.093     1.1014 calculate D2E/DX2 analyti!
 ! R3    R(1,4)             1.0947    1.0941    1.0936 calculate D2E/DX2 analyti!
 ! R4    R(1,5)             1.512     1.5364    1.4965 calculate D2E/DX2 analyti!
 ! R5    R(5,6)             1.3714    1.0998    2.3891 calculate D2E/DX2 analyti!
 ! R6    R(5,7)             1.5152    1.5406    1.5014 calculate D2E/DX2 analyti!
 ! R7    R(5,22)            1.5428    1.5319    1.4886 calculate D2E/DX2 analyti!
 ! R8    R(6,30)            1.2343    2.9703    0.967  calculate D2E/DX2 analyti!
 ! R9    R(7,8)             1.0986    1.0966    1.0984 calculate D2E/DX2 analyti!
 ! R10   R(7,9)             1.1054    1.0962    1.1045 calculate D2E/DX2 analyti!
 ! R11   R(7,10)            1.5399    1.5342    1.5364 calculate D2E/DX2 analyti!
 ! R12   R(10,11)           1.0987    1.0988    1.0976 calculate D2E/DX2 analyti!
 ! R13   R(10,12)           1.096     1.0933    1.0932 calculate D2E/DX2 analyti!
 ! R14   R(10,13)           1.5351    1.5343    1.534  calculate D2E/DX2 analyti!
 ! R15   R(13,14)           1.1013    1.0985    1.0987 calculate D2E/DX2 analyti!
 ! R16   R(13,15)           1.1       1.0975    1.0975 calculate D2E/DX2 analyti!
 ! R17   R(13,16)           1.5417    1.5406    1.5406 calculate D2E/DX2 analyti!
 ! R18   R(16,17)           1.1012    1.0991    1.099  calculate D2E/DX2 analyti!
 ! R19   R(16,18)           1.5362    1.5354    1.5353 calculate D2E/DX2 analyti!
 ! R20   R(16,25)           1.5364    1.5356    1.5357 calculate D2E/DX2 analyti!
 ! R21   R(18,19)           1.0981    1.0957    1.0957 calculate D2E/DX2 analyti!
 ! R22   R(18,20)           1.0964    1.0941    1.0941 calculate D2E/DX2 analyti!
 ! R23   R(18,21)           1.0967    1.0942    1.0941 calculate D2E/DX2 analyti!
 ! R24   R(22,23)           1.0966    1.0927    1.0964 calculate D2E/DX2 analyti!
 ! R25   R(22,24)           1.0974    1.0896    1.0927 calculate D2E/DX2 analyti!
 ! R26   R(22,29)           1.4287    1.4626    1.4548 calculate D2E/DX2 analyti!
 ! R27   R(25,26)           1.0963    1.0941    1.0941 calculate D2E/DX2 analyti!
 ! R28   R(25,27)           1.0984    1.0957    1.096  calculate D2E/DX2 analyti!
 ! R29   R(25,28)           1.0952    1.0926    1.0927 calculate D2E/DX2 analyti!
 ! R30   R(29,30)           1.4284    1.3193    1.4614 calculate D2E/DX2 analyti!
 ! A1    A(2,1,3)         107.2135  107.889   106.5729 calculate D2E/DX2 analyti!
 ! A2    A(2,1,4)         108.8025  107.8235  108.5014 calculate D2E/DX2 analyti!
 ! A3    A(2,1,5)         111.5819  110.5706  111.4548 calculate D2E/DX2 analyti!
 ! A4    A(3,1,4)         107.703   107.8292  106.7063 calculate D2E/DX2 analyti!
 ! A5    A(3,1,5)         110.4388  111.0956  111.3243 calculate D2E/DX2 analyti!
 ! A6    A(4,1,5)         110.9473  111.4829  112.0073 calculate D2E/DX2 analyti!
 ! A7    A(1,5,6)         106.5196  108.047    96.798  calculate D2E/DX2 analyti!
 ! A8    A(1,5,7)         116.3601  111.447   117.6768 calculate D2E/DX2 analyti!
 ! A9    A(1,5,22)        113.9445  111.0565  117.7772 calculate D2E/DX2 analyti!
 ! A10   A(6,5,7)         111.2674  107.7947  116.641  calculate D2E/DX2 analyti!
 ! A11   A(6,5,22)         85.3306  104.3275   70.7352 calculate D2E/DX2 analyti!
 ! A12   A(7,5,22)        118.3273  113.7158  122.2788 calculate D2E/DX2 analyti!
 ! A13   A(5,7,8)         108.6873  107.3842  108.2365 calculate D2E/DX2 analyti!
 ! A14   A(5,7,9)         108.5995  109.3173  108.5305 calculate D2E/DX2 analyti!
 ! A15   A(5,7,10)        115.9036  115.5165  117.1293 calculate D2E/DX2 analyti!
 ! A16   A(8,7,9)         105.2416  105.9079  105.0485 calculate D2E/DX2 analyti!
 ! A17   A(8,7,10)        108.9374  108.7583  108.9568 calculate D2E/DX2 analyti!
 ! A18   A(9,7,10)        108.9449  109.5077  108.2788 calculate D2E/DX2 analyti!
 ! A19   A(7,10,11)       108.9717  109.3402  109.4416 calculate D2E/DX2 analyti!
 ! A20   A(7,10,12)       109.9084  109.5788  109.3309 calculate D2E/DX2 analyti!
 ! A21   A(7,10,13)       112.1779  112.418   112.1937 calculate D2E/DX2 analyti!
 ! A22   A(11,10,12)      106.0387  106.7351  106.7883 calculate D2E/DX2 analyti!
 ! A23   A(11,10,13)      109.5818  109.0585  109.224  calculate D2E/DX2 analyti!
 ! A24   A(12,10,13)      109.9701  109.5459  109.7134 calculate D2E/DX2 analyti!
 ! A25   A(10,13,14)      109.371   109.2351  109.2889 calculate D2E/DX2 analyti!
 ! A26   A(10,13,15)      108.5969  108.5757  108.6068 calculate D2E/DX2 analyti!
 ! A27   A(10,13,16)      115.1737  115.322   115.3065 calculate D2E/DX2 analyti!
 ! A28   A(14,13,15)      105.933   106.035   105.986  calculate D2E/DX2 analyti!
 ! A29   A(14,13,16)      108.9211  108.8586  108.8243 calculate D2E/DX2 analyti!
 ! A30   A(15,13,16)      108.444   108.4131  108.4233 calculate D2E/DX2 analyti!
 ! A31   A(13,16,17)      107.5548  107.5475  107.5833 calculate D2E/DX2 analyti!
 ! A32   A(13,16,18)      110.3738  110.4572  110.5119 calculate D2E/DX2 analyti!
 ! A33   A(13,16,25)      112.5938  112.568   112.5095 calculate D2E/DX2 analyti!
 ! A34   A(17,16,18)      107.7581  107.7108  107.7217 calculate D2E/DX2 analyti!
 ! A35   A(17,16,25)      107.8562  107.9135  107.8975 calculate D2E/DX2 analyti!
 ! A36   A(18,16,25)      110.5088  110.4481  110.424  calculate D2E/DX2 analyti!
 ! A37   A(16,18,19)      110.927   110.8232  110.8509 calculate D2E/DX2 analyti!
 ! A38   A(16,18,20)      111.2424  111.2857  111.3039 calculate D2E/DX2 analyti!
 ! A39   A(16,18,21)      111.4596  111.4368  111.3991 calculate D2E/DX2 analyti!
 ! A40   A(19,18,20)      107.5615  107.6012  107.6009 calculate D2E/DX2 analyti!
 ! A41   A(19,18,21)      107.6395  107.6829  107.6803 calculate D2E/DX2 analyti!
 ! A42   A(20,18,21)      107.8321  107.8372  107.8317 calculate D2E/DX2 analyti!
 ! A43   A(5,22,23)       111.1329  110.7561  111.0882 calculate D2E/DX2 analyti!
 ! A44   A(5,22,24)       113.9079  113.1446  113.1567 calculate D2E/DX2 analyti!
 ! A45   A(5,22,29)       104.5757  111.7315  113.8594 calculate D2E/DX2 analyti!
 ! A46   A(23,22,24)      109.8794  110.0172  108.8883 calculate D2E/DX2 analyti!
 ! A47   A(23,22,29)      110.6863  103.8362  100.5294 calculate D2E/DX2 analyti!
 ! A48   A(24,22,29)      106.4288  106.8911  108.5179 calculate D2E/DX2 analyti!
 ! A49   A(16,25,26)      110.866   110.8643  110.9216 calculate D2E/DX2 analyti!
 ! A50   A(16,25,27)      110.805   110.7158  110.6616 calculate D2E/DX2 analyti!
 ! A51   A(16,25,28)      112.1684  112.2569  112.2129 calculate D2E/DX2 analyti!
 ! A52   A(26,25,27)      107.5293  107.6319  107.6092 calculate D2E/DX2 analyti!
 ! A53   A(26,25,28)      107.4336  107.4823  107.4739 calculate D2E/DX2 analyti!
 ! A54   A(27,25,28)      107.8425  107.6948  107.7693 calculate D2E/DX2 analyti!
 ! A55   A(22,29,30)      102.3732  112.614   107.1821 calculate D2E/DX2 analyti!
 ! A56   A(6,30,29)        93.1677   50.6278   99.9673 calculate D2E/DX2 analyti!
 ! D1    D(2,1,5,6)       -71.3911  -60.5151  -78.8813 calculate D2E/DX2 analyti!
 ! D2    D(2,1,5,7)        53.304    57.7356   46.0393 calculate D2E/DX2 analyti!
 ! D3    D(2,1,5,22)     -163.6146 -174.3645 -150.6559 calculate D2E/DX2 analyti!
 ! D4    D(3,1,5,6)       169.4628  179.7201  162.2756 calculate D2E/DX2 analyti!
 ! D5    D(3,1,5,7)       -65.8421  -62.0293  -72.8037 calculate D2E/DX2 analyti!
 ! D6    D(3,1,5,22)       77.2393   65.8707   90.501  calculate D2E/DX2 analyti!
 ! D7    D(4,1,5,6)        50.1131   59.4215   42.894  calculate D2E/DX2 analyti!
 ! D8    D(4,1,5,7)       174.8082  177.6722  167.8147 calculate D2E/DX2 analyti!
 ! D9    D(4,1,5,22)      -42.1104  -54.4279  -28.8806 calculate D2E/DX2 analyti!
 ! D10   D(1,5,7,8)       -33.1745  -48.9358  -38.5005 calculate D2E/DX2 analyti!
 ! D11   D(1,5,7,9)        80.8193   65.5262   74.9998 calculate D2E/DX2 analyti!
 ! D12   D(1,5,7,10)     -156.2077 -170.4581 -162.0832 calculate D2E/DX2 analyti!
 ! D13   D(6,5,7,8)        89.0614   69.4663   75.8713 calculate D2E/DX2 analyti!
 ! D14   D(6,5,7,9)      -156.9448 -176.0717 -170.6284 calculate D2E/DX2 analyti!
 ! D15   D(6,5,7,10)      -33.9718  -52.056   -47.7113 calculate D2E/DX2 analyti!
 ! D16   D(22,5,7,8)     -174.59   -175.3913  158.9954 calculate D2E/DX2 analyti!
 ! D17   D(22,5,7,9)      -60.5962  -60.9293  -87.5043 calculate D2E/DX2 analyti!
 ! D18   D(22,5,7,10)      62.3768   63.0864   35.4128 calculate D2E/DX2 analyti!
 ! D19   D(1,5,22,23)    -165.8681 -125.5    -125.5    calculate D2E/DX2 analyti!
 ! D20   D(1,5,22,24)     -41.1092   -1.4371   -2.6595 calculate D2E/DX2 analyti!
 ! D21   D(1,5,22,29)      74.6714  119.2625  121.8736 calculate D2E/DX2 analyti!
 ! D22   D(6,5,22,23)      88.1172  118.3354  146.9286 calculate D2E/DX2 analyti!
 ! D23   D(6,5,22,24)    -147.1239 -117.6017  -90.2309 calculate D2E/DX2 analyti!
 ! D24   D(6,5,22,29)     -31.3433    3.098    34.3022 calculate D2E/DX2 analyti!
 ! D25   D(7,5,22,23)     -23.5619    1.1604   36.9874 calculate D2E/DX2 analyti!
 ! D26   D(7,5,22,24)     101.197   125.2232  159.828  calculate D2E/DX2 analyti!
 ! D27   D(7,5,22,29)    -143.0224 -114.0771  -75.639  calculate D2E/DX2 analyti!
 ! D28   D(5,7,10,11)      57.8225   53.1327   53.6944 calculate D2E/DX2 analyti!
 ! D29   D(5,7,10,12)     -57.9773  -63.5294  -62.9482 calculate D2E/DX2 analyti!
 ! D30   D(5,7,10,13)     179.3466  174.4077  175.1013 calculate D2E/DX2 analyti!
 ! D31   D(8,7,10,11)     -65.0793  -67.6478  -69.5206 calculate D2E/DX2 analyti!
 ! D32   D(8,7,10,12)     179.1209  175.69    173.8367 calculate D2E/DX2 analyti!
 ! D33   D(8,7,10,13)      56.4448   53.6272   51.8862 calculate D2E/DX2 analyti!
 ! D34   D(9,7,10,11)    -179.3861  177.0488  176.7405 calculate D2E/DX2 analyti!
 ! D35   D(9,7,10,12)      64.8141   60.3867   60.0979 calculate D2E/DX2 analyti!
 ! D36   D(9,7,10,13)     -57.862   -61.6762  -61.8526 calculate D2E/DX2 analyti!
 ! D37   D(7,10,13,14)     61.9243   60.3611   59.0968 calculate D2E/DX2 analyti!
 ! D38   D(7,10,13,15)    -53.2463  -54.8463  -56.0983 calculate D2E/DX2 analyti!
 ! D39   D(7,10,13,16)   -175.0482 -176.6939 -177.9723 calculate D2E/DX2 analyti!
 ! D40   D(11,10,13,14)  -176.9019 -178.2029 -179.3716 calculate D2E/DX2 analyti!
 ! D41   D(11,10,13,15)    67.9275   66.5897   65.4333 calculate D2E/DX2 analyti!
 ! D42   D(11,10,13,16)   -53.8743  -55.2579  -56.4407 calculate D2E/DX2 analyti!
 ! D43   D(12,10,13,14)   -60.7169  -61.7204  -62.6354 calculate D2E/DX2 analyti!
 ! D44   D(12,10,13,15)  -175.8875 -176.9278 -177.8304 calculate D2E/DX2 analyti!
 ! D45   D(12,10,13,16)    62.3106   61.2246   60.2956 calculate D2E/DX2 analyti!
 ! D46   D(10,13,16,17)    55.1984   54.1274   53.4269 calculate D2E/DX2 analyti!
 ! D47   D(10,13,16,18)   172.5036  171.4173  170.7808 calculate D2E/DX2 analyti!
 ! D48   D(10,13,16,25)   -63.4861  -64.6078  -65.2773 calculate D2E/DX2 analyti!
 ! D49   D(14,13,16,17)   178.4651  177.2722  176.6045 calculate D2E/DX2 analyti!
 ! D50   D(14,13,16,18)   -64.2297  -65.4379  -66.0416 calculate D2E/DX2 analyti!
 ! D51   D(14,13,16,25)    59.7806   58.537    57.9003 calculate D2E/DX2 analyti!
 ! D52   D(15,13,16,17)   -66.6859  -67.8076  -68.5458 calculate D2E/DX2 analyti!
 ! D53   D(15,13,16,18)    50.6193   49.4823   48.8082 calculate D2E/DX2 analyti!
 ! D54   D(15,13,16,25)   174.6296  173.4572  172.75   calculate D2E/DX2 analyti!
 ! D55   D(13,16,18,19)    62.6736   62.3109   62.2188 calculate D2E/DX2 analyti!
 ! D56   D(13,16,18,20)  -177.6411 -177.9942 -178.0562 calculate D2E/DX2 analyti!
 ! D57   D(13,16,18,21)   -57.2546  -57.5871  -57.6694 calculate D2E/DX2 analyti!
 ! D58   D(17,16,18,19)   179.8531  179.5     179.4874 calculate D2E/DX2 analyti!
 ! D59   D(17,16,18,20)   -60.4616  -60.8051  -60.7876 calculate D2E/DX2 analyti!
 ! D60   D(17,16,18,21)    59.925    59.602    59.5992 calculate D2E/DX2 analyti!
 ! D61   D(25,16,18,19)   -62.5302  -62.876   -62.9147 calculate D2E/DX2 analyti!
 ! D62   D(25,16,18,20)    57.1551   56.8189   56.8102 calculate D2E/DX2 analyti!
 ! D63   D(25,16,18,21)   177.5416  177.2261  177.197  calculate D2E/DX2 analyti!
 ! D64   D(13,16,25,26)  -179.2693 -179.715  -179.7885 calculate D2E/DX2 analyti!
 ! D65   D(13,16,25,27)   -59.9516  -60.3279  -60.428  calculate D2E/DX2 analyti!
 ! D66   D(13,16,25,28)    60.6292   60.0625   59.9898 calculate D2E/DX2 analyti!
 ! D67   D(17,16,25,26)    62.2227   61.7643   61.6917 calculate D2E/DX2 analyti!
 ! D68   D(17,16,25,27)  -178.4596 -178.8486 -178.9478 calculate D2E/DX2 analyti!
 ! D69   D(17,16,25,28)   -57.8788  -58.4582  -58.53   calculate D2E/DX2 analyti!
 ! D70   D(18,16,25,26)   -55.3337  -55.735   -55.7979 calculate D2E/DX2 analyti!
 ! D71   D(18,16,25,27)    63.984    63.6521   63.5626 calculate D2E/DX2 analyti!
 ! D72   D(18,16,25,28)  -175.4352 -175.9575 -176.0196 calculate D2E/DX2 analyti!
 ! D73   D(5,22,29,30)     46.0743  -95.3673  -66.9427 calculate D2E/DX2 analyti!
 ! D74   D(23,22,29,30)   -73.6864  145.2215  174.2167 calculate D2E/DX2 analyti!
 ! D75   D(24,22,29,30)   166.9542   28.9123   60.043  calculate D2E/DX2 analyti!
 ! D76   D(22,29,30,6)    -35.5191   64.1292   55.5    calculate D2E/DX2 analyti!
 --------------------------------------------------------------------------------
 Trust Radius=3.00D-01 FncErr=1.00D-07 GrdErr=1.00D-06
 Number of steps in this run=    172 maximum allowed number of steps=    180.
 Search for a saddle point of order  1.
 GradGradGradGradGradGradGradGradGradGradGradGradGradGradGradGradGradGrad

 Leave Link  103 at Sat Feb 15 18:02:12 2014, MaxMem= 4026531840 cpu:       0.2
 (Enter /usr/caen/gaussian-09revc/g09/l202.exe)
                          Input orientation:                          
 ---------------------------------------------------------------------
 Center     Atomic      Atomic             Coordinates (Angstroms)
 Number     Number       Type             X           Y           Z
 ---------------------------------------------------------------------
      1          6           0       -3.031590    1.689125   -0.142405
      2          1           0       -2.772133    2.354015   -0.973621
      3          1           0       -3.139257    2.317658    0.756707
      4          1           0       -4.004778    1.231514   -0.347159
      5          6           0       -1.972484    0.632273    0.075884
      6          1           0       -2.069439   -0.240394   -0.977608
      7          6           0       -0.551606    1.129356    0.248819
      8          1           0       -0.416893    2.030700   -0.364686
      9          1           0       -0.420734    1.466562    1.293338
     10          6           0        0.560371    0.120714   -0.093957
     11          1           0        0.437207   -0.206422   -1.135609
     12          1           0        0.450170   -0.779632    0.521238
     13          6           0        1.962181    0.716969    0.095731
     14          1           0        2.101932    0.992586    1.152797
     15          1           0        2.023290    1.657138   -0.472099
     16          6           0        3.126852   -0.193627   -0.341678
     17          1           0        2.950458   -0.477588   -1.390861
     18          6           0        4.456876    0.572797   -0.280958
     19          1           0        4.683288    0.884571    0.747274
     20          1           0        5.289967   -0.049118   -0.629097
     21          1           0        4.428616    1.475343   -0.903285
     22          6           0       -2.442595   -0.556196    0.940124
     23          1           0       -1.592067   -1.160785    1.277164
     24          1           0       -3.057403   -0.264330    1.801022
     25          6           0        3.210859   -1.484085    0.487901
     26          1           0        4.054940   -2.103357    0.162328
     27          1           0        3.359602   -1.254977    1.551748
     28          1           0        2.304343   -2.092147    0.399153
     29          8           0       -3.290785   -1.315345    0.076668
     30          8           0       -2.524752   -1.377817   -1.127357
 ---------------------------------------------------------------------
                    Distance matrix (angstroms):
                    1          2          3          4          5
     1  C    0.000000
     2  H    1.095590   0.000000
     3  H    1.102292   1.769219   0.000000
     4  H    1.094727   1.780976   1.774079   0.000000
     5  C    1.512049   2.169169   2.159954   2.160619   0.000000
     6  H    2.312216   2.687890   3.270472   2.511875   1.371420
     7  C    2.572298   2.815118   2.892395   3.505713   1.515220
     8  H    2.646266   2.454076   2.958231   3.675857   2.137654
     9  H    2.987886   3.384635   2.898742   3.948652   2.141532
    10  C    3.919751   4.106948   4.386051   4.705165   2.589574
    11  H    4.075795   4.108764   4.768955   4.735034   2.824489
    12  H    4.319472   4.736833   4.746856   4.964412   2.839202
    13  C    5.093088   5.122222   5.387371   6.005457   3.935627
    14  H    5.340015   5.489231   5.420587   6.292763   4.229708
    15  H    5.065721   4.871678   5.347723   6.044367   4.161351
    16  C    6.442893   6.456613   6.839380   7.272634   5.182634
    17  H    6.483686   6.398446   7.036340   7.237793   5.255330
    18  C    7.572484   7.477372   7.862730   8.487513   6.439530
    19  H    7.807572   7.791280   7.952738   8.763598   6.694305
    20  H    8.515085   8.419691   8.864192   9.386788   7.328334
    21  H    7.501954   7.254502   7.793444   8.455227   6.530208
    22  C    2.561299   3.498620   2.962772   2.700633   1.542846
    23  H    3.494194   4.337327   3.842426   3.765992   2.191540
    24  H    2.755642   3.825670   2.786388   2.783837   2.226443
    25  C    7.030983   7.256945   7.406043   7.754819   5.613891
    26  H    8.043301   8.232100   8.464935   8.737276   6.619742
    27  H    7.237764   7.549867   7.458618   8.001411   5.845599
    28  H    6.562277   6.886470   7.014771   7.169987   5.081163
    29  O    3.023577   3.851793   3.699206   2.678788   2.351836
    30  O    3.260851   3.743181   4.193310   3.099644   2.406917
                    6          7          8          9         10
     6  H    0.000000
     7  C    2.384147   0.000000
     8  H    2.874796   1.098616   0.000000
     9  H    3.284680   1.105376   1.751374   0.000000
    10  C    2.797702   1.539918   2.162495   2.167593   0.000000
    11  H    2.511850   2.163029   2.515656   3.071599   1.098738
    12  H    2.980897   2.173017   3.071584   2.529822   1.096007
    13  C    4.280486   2.551984   2.756423   2.770277   1.535113
    14  H    4.843470   2.806625   3.118480   2.570651   2.165864
    15  H    4.539449   2.725503   2.470947   3.020983   2.154930
    16  C    5.235268   3.953483   4.184052   4.244393   2.597499
    17  H    5.042460   4.187514   4.322453   4.727534   2.784321
    18  C    6.613576   5.067081   5.087840   5.202721   3.927098
    19  H    7.059751   5.264266   5.344335   5.166037   4.276633
    20  H    7.370136   6.023580   6.079787   6.213304   4.762803
    21  H    6.721160   5.123442   4.906880   5.323667   4.177721
    22  C    1.979058   2.625800   3.535255   2.881706   3.247358
    23  H    2.481733   2.717499   3.776544   2.876671   2.855731
    24  H    2.949141   3.260477   4.114577   3.194645   4.102133
    25  C    5.619255   4.587306   5.122617   4.748001   3.152622
    26  H    6.502161   5.628337   6.112729   5.835680   4.150203
    27  H    6.074661   4.762375   5.360066   4.665243   3.526551
    28  H    4.945142   4.307798   4.998644   4.570560   2.860306
    29  O    1.938738   3.675500   4.432839   4.178096   4.113731
    30  O    1.234288   3.474634   4.079550   4.286858   3.582108
                   11         12         13         14         15
    11  H    0.000000
    12  H    1.753248   0.000000
    13  C    2.166655   2.169573   0.000000
    14  H    3.073391   2.503586   1.101310   0.000000
    15  H    2.535500   3.065823   1.100038   1.757299   0.000000
    16  C    2.804404   2.872743   1.541743   2.165876   2.158747
    17  H    2.540692   3.162087   2.147932   3.058039   2.502163
    18  C    4.182744   4.304216   2.527090   2.788842   2.671081
    19  H    4.771239   4.554114   2.803038   2.615247   3.026437
    20  H    4.881657   5.027977   3.490906   3.797876   3.688785
    21  H    4.337471   4.789803   2.767032   3.142290   2.450421
    22  C    3.567109   2.931464   4.662188   4.805901   5.180478
    23  H    3.293970   2.210754   4.189800   4.277628   4.906263
    24  H    4.565025   3.769145   5.391400   5.349651   5.888341
    25  C    3.458519   2.849345   2.560788   2.793869   3.492736
    26  H    4.286140   3.856868   3.512594   3.792114   4.321044
    27  H    4.106306   3.122931   2.821585   2.606230   3.789736
    28  H    3.065559   2.274985   2.846098   3.181906   3.859431
    29  O    4.073972   3.805177   5.632434   5.963723   6.113607
    30  O    3.185190   3.453383   5.100651   5.676629   5.506814
                   16         17         18         19         20
    16  C    0.000000
    17  H    1.101151   0.000000
    18  C    1.536248   2.145807   0.000000
    19  H    2.184221   3.070798   1.098056   0.000000
    20  H    2.186906   2.497433   1.096367   1.770376   0.000000
    21  H    2.189852   2.497323   1.096667   1.771501   1.772311
    22  C    5.726536   5.875772   7.097067   7.272634   7.906459
    23  H    5.081756   5.312217   6.482497   6.621506   7.227173
    24  H    6.545317   6.806467   7.842182   7.896116   8.696573
    25  C    1.536405   2.147229   2.524771   2.801045   2.762156
    26  H    2.182301   2.505075   2.742235   3.108810   2.524192
    27  H    2.183048   3.070941   2.811331   2.641399   3.152220
    28  H    2.197665   2.495679   3.492546   3.826411   3.761013
    29  O    6.528348   6.465956   7.982432   8.299107   8.702341
    30  O    5.827540   5.554977   7.298247   7.783860   7.942515
                   21         22         23         24         25
    21  H    0.000000
    22  C    7.398571   0.000000
    23  H    6.924749   1.096596   0.000000
    24  H    8.147406   1.097415   1.795903   0.000000
    25  C    3.489491   5.746914   4.878069   6.519448   0.000000
    26  H    3.752634   6.724332   5.832666   7.526803   1.096343
    27  H    3.824216   5.876042   4.960171   6.497805   1.098356
    28  H    4.351536   5.018487   4.101262   5.835621   1.095165
    29  O    8.266644   1.428737   2.085839   2.032854   6.516821
    30  O    7.519312   2.226272   2.588190   3.177888   5.959663
                   26         27         28         29         30
    26  H    0.000000
    27  H    1.770235   0.000000
    28  H    1.766579   1.772823   0.000000
    29  O    7.388368   6.812280   5.657992   0.000000
    30  O    6.744038   6.466708   5.114749   1.428421   0.000000
 Stoichiometry    C9H19O2(2)
 Framework group  C1[X(C9H19O2)]
 Deg. of freedom    84
 Full point group                 C1      NOp   1
 Largest Abelian subgroup         C1      NOp   1
 Largest concise Abelian subgroup C1      NOp   1
                         Standard orientation:                         
 ---------------------------------------------------------------------
 Center     Atomic      Atomic             Coordinates (Angstroms)
 Number     Number       Type             X           Y           Z
 ---------------------------------------------------------------------
      1          6           0       -3.031590    1.689125   -0.142405
      2          1           0       -2.772133    2.354015   -0.973621
      3          1           0       -3.139257    2.317658    0.756707
      4          1           0       -4.004778    1.231514   -0.347159
      5          6           0       -1.972484    0.632273    0.075884
      6          1           0       -2.069439   -0.240394   -0.977608
      7          6           0       -0.551606    1.129356    0.248819
      8          1           0       -0.416893    2.030700   -0.364686
      9          1           0       -0.420734    1.466562    1.293338
     10          6           0        0.560371    0.120714   -0.093957
     11          1           0        0.437207   -0.206422   -1.135609
     12          1           0        0.450170   -0.779632    0.521238
     13          6           0        1.962181    0.716969    0.095731
     14          1           0        2.101932    0.992586    1.152797
     15          1           0        2.023290    1.657138   -0.472099
     16          6           0        3.126852   -0.193627   -0.341678
     17          1           0        2.950458   -0.477588   -1.390861
     18          6           0        4.456876    0.572797   -0.280958
     19          1           0        4.683288    0.884571    0.747274
     20          1           0        5.289967   -0.049118   -0.629097
     21          1           0        4.428616    1.475343   -0.903285
     22          6           0       -2.442595   -0.556196    0.940124
     23          1           0       -1.592067   -1.160785    1.277164
     24          1           0       -3.057403   -0.264330    1.801022
     25          6           0        3.210859   -1.484085    0.487901
     26          1           0        4.054940   -2.103357    0.162328
     27          1           0        3.359602   -1.254977    1.551748
     28          1           0        2.304343   -2.092147    0.399153
     29          8           0       -3.290785   -1.315345    0.076668
     30          8           0       -2.524752   -1.377817   -1.127357
 ---------------------------------------------------------------------
 Rotational constants (GHZ):      2.0430139      0.3999462      0.3613267
 Leave Link  202 at Sat Feb 15 18:02:12 2014, MaxMem= 4026531840 cpu:       0.5
 (Enter /usr/caen/gaussian-09revc/g09/l301.exe)
 Standard basis: 6-311++G(d,p) (5D, 7F)
 Ernie: Thresh=  0.10000D-02 Tol=  0.10000D-05 Strict=F.
 There are   375 symmetry adapted basis functions of A   symmetry.
 Integral buffers will be    131072 words long.
 Raffenetti 2 integral format.
 Two-electron integral symmetry is turned on.
   375 basis functions,   567 primitive gaussians,   386 cartesian basis functions
    45 alpha electrons       44 beta electrons
       nuclear repulsion energy       647.1674471602 Hartrees.
 IExCor=  402 DFT=T Ex+Corr=B3LYP ExCW=0 ScaHFX=  0.200000
 ScaDFX=  0.800000  0.720000  1.000000  0.810000 ScalE2=  1.000000  1.000000
 IRadAn=      0 IRanWt=     -1 IRanGd=            0 ICorTp=0
 NAtoms=   30 NActive=   30 NUniq=   30 SFac= 1.00D+00 NAtFMM=   60 NAOKFM=F Big=F
 Leave Link  301 at Sat Feb 15 18:02:13 2014, MaxMem= 4026531840 cpu:       0.6
 (Enter /usr/caen/gaussian-09revc/g09/l302.exe)
 NPDir=0 NMtPBC=     1 NCelOv=     1 NCel=       1 NClECP=     1 NCelD=      1
         NCelK=      1 NCelE2=     1 NClLst=     1 CellRange=     0.0.
 One-electron integrals computed using PRISM.
 NBasis=   375 RedAO= T  NBF=   375
 NBsUse=   375 1.00D-06 NBFU=   375
 Precomputing XC quadrature grid using
 IXCGrd= 2 IRadAn=           0 IRanWt=          -1 IRanGd=           0 AccXCQ= 0.00D+00.
 NRdTot=    1959 NPtTot=      249976 NUsed=      264092 NTot=      264124
 NSgBfM=   386   386   386   386   386 NAtAll=    30    30.
 Leave Link  302 at Sat Feb 15 18:02:14 2014, MaxMem= 4026531840 cpu:       9.0
 (Enter /usr/caen/gaussian-09revc/g09/l303.exe)
 DipDrv:  MaxL=1.
 Leave Link  303 at Sat Feb 15 18:02:15 2014, MaxMem= 4026531840 cpu:       1.8
 (Enter /usr/caen/gaussian-09revc/g09/l401.exe)
 Harris functional with IExCor=  402 diagonalized for initial guess.
 ExpMin= 3.60D-02 ExpMax= 8.59D+03 ExpMxC= 1.30D+03 IAcc=3 IRadAn=         5 AccDes= 0.00D+00
 HarFok:  IExCor=  402 AccDes= 0.00D+00 IRadAn=         5 IDoV= 1
 ScaDFX=  1.000000  1.000000  1.000000  1.000000
 FoFCou: FMM=F IPFlag=           0 FMFlag=      100000 FMFlg1=           0
         NFxFlg=           0 DoJE=T BraDBF=F KetDBF=T FulRan=T
         Omega=  0.000000  0.000000  1.000000  0.000000  0.000000 ICntrl=     500 IOpCl=  0
         NMat0=    1 NMatS0=    1 NMatT0=    0 NMatD0=    1 NMtDS0=    0 NMtDT0=    0
         I1Cent=           4 NGrid=           0.
 Petite list used in FoFCou.
 Harris En= -504.875912631215    
 Initial guess orbital symmetries:
 Alpha Orbitals:
       Occupied  (A) (A) (A) (A) (A) (A) (A) (A) (A) (A) (A) (A)
                 (A) (A) (A) (A) (A) (A) (A) (A) (A) (A) (A) (A)
                 (A) (A) (A) (A) (A) (A) (A) (A) (A) (A) (A) (A)
                 (A) (A) (A) (A) (A) (A) (A) (A) (A)
       Virtual   (A) (A) (A) (A) (A) (A) (A) (A) (A) (A) (A) (A)
                 (A) (A) (A) (A) (A) (A) (A) (A) (A) (A) (A) (A)
                 (A) (A) (A) (A) (A) (A) (A) (A) (A) (A) (A) (A)
                 (A) (A) (A) (A) (A) (A) (A) (A) (A) (A) (A) (A)
                 (A) (A) (A) (A) (A) (A) (A) (A) (A) (A) (A) (A)
                 (A) (A) (A) (A) (A) (A) (A) (A) (A) (A) (A) (A)
                 (A) (A) (A) (A) (A) (A) (A) (A) (A) (A) (A) (A)
                 (A) (A) (A) (A) (A) (A) (A) (A) (A) (A) (A) (A)
                 (A) (A) (A) (A) (A) (A) (A) (A) (A) (A) (A) (A)
                 (A) (A) (A) (A) (A) (A) (A) (A) (A) (A) (A) (A)
                 (A) (A) (A) (A) (A) (A) (A) (A) (A) (A) (A) (A)
                 (A) (A) (A) (A) (A) (A) (A) (A) (A) (A) (A) (A)
                 (A) (A) (A) (A) (A) (A) (A) (A) (A) (A) (A) (A)
                 (A) (A) (A) (A) (A) (A) (A) (A) (A) (A) (A) (A)
                 (A) (A) (A) (A) (A) (A) (A) (A) (A) (A) (A) (A)
                 (A) (A) (A) (A) (A) (A) (A) (A) (A) (A) (A) (A)
                 (A) (A) (A) (A) (A) (A) (A) (A) (A) (A) (A) (A)
                 (A) (A) (A) (A) (A) (A) (A) (A) (A) (A) (A) (A)
                 (A) (A) (A) (A) (A) (A) (A) (A) (A) (A) (A) (A)
                 (A) (A) (A) (A) (A) (A) (A) (A) (A) (A) (A) (A)
                 (A) (A) (A) (A) (A) (A) (A) (A) (A) (A) (A) (A)
                 (A) (A) (A) (A) (A) (A) (A) (A) (A) (A) (A) (A)
                 (A) (A) (A) (A) (A) (A) (A) (A) (A) (A) (A) (A)
                 (A) (A) (A) (A) (A) (A) (A) (A) (A) (A) (A) (A)
                 (A) (A) (A) (A) (A) (A) (A) (A) (A) (A) (A) (A)
                 (A) (A) (A) (A) (A) (A) (A) (A) (A) (A) (A) (A)
                 (A) (A) (A) (A) (A) (A) (A) (A) (A) (A) (A) (A)
                 (A) (A) (A) (A) (A) (A)
 Beta  Orbitals:
       Occupied  (A) (A) (A) (A) (A) (A) (A) (A) (A) (A) (A) (A)
                 (A) (A) (A) (A) (A) (A) (A) (A) (A) (A) (A) (A)
                 (A) (A) (A) (A) (A) (A) (A) (A) (A) (A) (A) (A)
                 (A) (A) (A) (A) (A) (A) (A) (A)
       Virtual   (A) (A) (A) (A) (A) (A) (A) (A) (A) (A) (A) (A)
                 (A) (A) (A) (A) (A) (A) (A) (A) (A) (A) (A) (A)
                 (A) (A) (A) (A) (A) (A) (A) (A) (A) (A) (A) (A)
                 (A) (A) (A) (A) (A) (A) (A) (A) (A) (A) (A) (A)
                 (A) (A) (A) (A) (A) (A) (A) (A) (A) (A) (A) (A)
                 (A) (A) (A) (A) (A) (A) (A) (A) (A) (A) (A) (A)
                 (A) (A) (A) (A) (A) (A) (A) (A) (A) (A) (A) (A)
                 (A) (A) (A) (A) (A) (A) (A) (A) (A) (A) (A) (A)
                 (A) (A) (A) (A) (A) (A) (A) (A) (A) (A) (A) (A)
                 (A) (A) (A) (A) (A) (A) (A) (A) (A) (A) (A) (A)
                 (A) (A) (A) (A) (A) (A) (A) (A) (A) (A) (A) (A)
                 (A) (A) (A) (A) (A) (A) (A) (A) (A) (A) (A) (A)
                 (A) (A) (A) (A) (A) (A) (A) (A) (A) (A) (A) (A)
                 (A) (A) (A) (A) (A) (A) (A) (A) (A) (A) (A) (A)
                 (A) (A) (A) (A) (A) (A) (A) (A) (A) (A) (A) (A)
                 (A) (A) (A) (A) (A) (A) (A) (A) (A) (A) (A) (A)
                 (A) (A) (A) (A) (A) (A) (A) (A) (A) (A) (A) (A)
                 (A) (A) (A) (A) (A) (A) (A) (A) (A) (A) (A) (A)
                 (A) (A) (A) (A) (A) (A) (A) (A) (A) (A) (A) (A)
                 (A) (A) (A) (A) (A) (A) (A) (A) (A) (A) (A) (A)
                 (A) (A) (A) (A) (A) (A) (A) (A) (A) (A) (A) (A)
                 (A) (A) (A) (A) (A) (A) (A) (A) (A) (A) (A) (A)
                 (A) (A) (A) (A) (A) (A) (A) (A) (A) (A) (A) (A)
                 (A) (A) (A) (A) (A) (A) (A) (A) (A) (A) (A) (A)
                 (A) (A) (A) (A) (A) (A) (A) (A) (A) (A) (A) (A)
                 (A) (A) (A) (A) (A) (A) (A) (A) (A) (A) (A) (A)
                 (A) (A) (A) (A) (A) (A) (A) (A) (A) (A) (A) (A)
                 (A) (A) (A) (A) (A) (A) (A)
 The electronic state of the initial guess is 2-A.
 Initial guess <Sx>= 0.0000 <Sy>= 0.0000 <Sz>= 0.5000 <S**2>= 0.7500 S= 0.5000
 Leave Link  401 at Sat Feb 15 18:02:19 2014, MaxMem= 4026531840 cpu:      28.6
 (Enter /usr/caen/gaussian-09revc/g09/l502.exe)
 UHF open shell SCF:
 Requested convergence on RMS density matrix=1.00D-08 within 128 cycles.
 Requested convergence on MAX density matrix=1.00D-06.
 Requested convergence on             energy=1.00D-06.
 No special actions if energy rises.
 Using DIIS extrapolation, IDIIS=  1040.
 Integral symmetry usage will be decided dynamically.
       263809 words used for storage of precomputed grid.
 IEnd=      734943 IEndB=      734943 NGot=  4026531840 MDV=  4025962920
 LenX=  4025962920 LenY=  4025813483
 Fock matrices will be formed incrementally for  20 cycles.

 Cycle   1  Pass 1  IDiag  1:
 FoFCou: FMM=F IPFlag=           0 FMFlag=      100000 FMFlg1=           0
         NFxFlg=           0 DoJE=F BraDBF=F KetDBF=F FulRan=T
         Omega=  0.000000  0.000000  1.000000  0.000000  0.000000 ICntrl=       0 IOpCl=  1
         NMat0=    1 NMatS0=    1 NMatT0=    0 NMatD0=    1 NMtDS0=    0 NMtDT0=    0
         I1Cent=           0 NGrid=           0.
 Symmetry not used in FoFCou.
 E= -504.459120818076    
 DIIS: error= 3.45D-02 at cycle   1 NSaved=   1.
 NSaved= 1 IEnMin= 1 EnMin= -504.459120818076     IErMin= 1 ErrMin= 3.45D-02
 ErrMax= 3.45D-02 EMaxC= 1.00D-01 BMatC= 1.45D+00 BMatP= 1.45D+00
 IDIUse=3 WtCom= 6.55D-01 WtEn= 3.45D-01
 Coeff-Com:  0.100D+01
 Coeff-En:   0.100D+01
 Coeff:      0.100D+01
 Gap=     0.201 Goal=   None    Shift=    0.000
 Gap=     0.128 Goal=   None    Shift=    0.000
 GapD=    0.128 DampG=1.000 DampE=0.500 DampFc=0.5000 IDamp=-1.
 Damping current iteration by 5.00D-01
 RMSDP=1.33D-02 MaxDP=1.60D+00              OVMax= 2.64D-01

 Cycle   2  Pass 1  IDiag  1:
 RMSU=  3.22D-03    CP:  8.36D-01
 E= -504.605457133632     Delta-E=       -0.146336315556 Rises=F Damp=T
 DIIS: error= 5.03D-03 at cycle   2 NSaved=   2.
 NSaved= 2 IEnMin= 2 EnMin= -504.605457133632     IErMin= 2 ErrMin= 5.03D-03
 ErrMax= 5.03D-03 EMaxC= 1.00D-01 BMatC= 1.06D-01 BMatP= 1.45D+00
 IDIUse=3 WtCom= 9.50D-01 WtEn= 5.03D-02
 Coeff-Com:  0.880D-01 0.912D+00
 Coeff-En:   0.190D+00 0.810D+00
 Coeff:      0.931D-01 0.907D+00
 Gap=     0.279 Goal=   None    Shift=    0.000
 Gap=     0.196 Goal=   None    Shift=    0.000
 RMSDP=4.99D-03 MaxDP=3.47D-01 DE=-1.46D-01 OVMax= 2.28D-01

 Cycle   3  Pass 1  IDiag  1:
 RMSU=  3.31D-03    CP:  8.57D-01  8.86D-01
 E= -504.804100830047     Delta-E=       -0.198643696414 Rises=F Damp=F
 DIIS: error= 6.86D-03 at cycle   3 NSaved=   3.
 NSaved= 3 IEnMin= 3 EnMin= -504.804100830047     IErMin= 2 ErrMin= 5.03D-03
 ErrMax= 6.86D-03 EMaxC= 1.00D-01 BMatC= 8.57D-02 BMatP= 1.06D-01
 IDIUse=3 WtCom= 9.31D-01 WtEn= 6.86D-02
 Coeff-Com: -0.380D-02 0.469D+00 0.535D+00
 Coeff-En:   0.000D+00 0.000D+00 0.100D+01
 Coeff:     -0.354D-02 0.437D+00 0.567D+00
 Gap=     0.248 Goal=   None    Shift=    0.000
 Gap=     0.115 Goal=   None    Shift=    0.000
 RMSDP=3.27D-03 MaxDP=3.60D-01 DE=-1.99D-01 OVMax= 1.65D-01

 Cycle   4  Pass 1  IDiag  1:
 RMSU=  1.11D-03    CP:  7.94D-01  9.47D-01  5.63D-01
 E= -504.815429488120     Delta-E=       -0.011328658073 Rises=F Damp=F
 DIIS: error= 5.27D-03 at cycle   4 NSaved=   4.
 NSaved= 4 IEnMin= 4 EnMin= -504.815429488120     IErMin= 2 ErrMin= 5.03D-03
 ErrMax= 5.27D-03 EMaxC= 1.00D-01 BMatC= 4.23D-02 BMatP= 8.57D-02
 IDIUse=3 WtCom= 9.47D-01 WtEn= 5.27D-02
 Coeff-Com: -0.199D-01 0.127D+00 0.418D+00 0.475D+00
 Coeff-En:   0.000D+00 0.000D+00 0.323D+00 0.677D+00
 Coeff:     -0.188D-01 0.120D+00 0.413D+00 0.485D+00
 Gap=     0.227 Goal=   None    Shift=    0.000
 Gap=     0.110 Goal=   None    Shift=    0.000
 RMSDP=1.01D-03 MaxDP=1.00D-01 DE=-1.13D-02 OVMax= 2.70D-02

 Cycle   5  Pass 1  IDiag  1:
 RMSU=  4.23D-04    CP:  7.95D-01  9.71D-01  6.71D-01  6.34D-01
 E= -504.823508533427     Delta-E=       -0.008079045307 Rises=F Damp=F
 DIIS: error= 6.63D-04 at cycle   5 NSaved=   5.
 NSaved= 5 IEnMin= 5 EnMin= -504.823508533427     IErMin= 5 ErrMin= 6.63D-04
 ErrMax= 6.63D-04 EMaxC= 1.00D-01 BMatC= 1.16D-03 BMatP= 4.23D-02
 IDIUse=3 WtCom= 9.93D-01 WtEn= 6.63D-03
 Coeff-Com: -0.769D-02 0.246D-01 0.170D+00 0.202D+00 0.611D+00
 Coeff-En:   0.000D+00 0.000D+00 0.000D+00 0.000D+00 0.100D+01
 Coeff:     -0.764D-02 0.244D-01 0.168D+00 0.201D+00 0.614D+00
 Gap=     0.225 Goal=   None    Shift=    0.000
 Gap=     0.112 Goal=   None    Shift=    0.000
 RMSDP=3.37D-04 MaxDP=3.49D-02 DE=-8.08D-03 OVMax= 1.92D-02

 Cycle   6  Pass 1  IDiag  1:
 RMSU=  1.23D-04    CP:  8.00D-01  9.63D-01  7.09D-01  6.37D-01  8.55D-01
 E= -504.823823079730     Delta-E=       -0.000314546303 Rises=F Damp=F
 DIIS: error= 9.82D-04 at cycle   6 NSaved=   6.
 NSaved= 6 IEnMin= 6 EnMin= -504.823823079730     IErMin= 5 ErrMin= 6.63D-04
 ErrMax= 9.82D-04 EMaxC= 1.00D-01 BMatC= 6.79D-04 BMatP= 1.16D-03
 IDIUse=3 WtCom= 9.93D-01 WtEn= 6.63D-03
 Coeff-Com: -0.393D-03-0.873D-02 0.391D-01 0.224D-01 0.410D+00 0.538D+00
 Coeff-En:   0.000D+00 0.000D+00 0.000D+00 0.000D+00 0.000D+00 0.100D+01
 Coeff:     -0.390D-03-0.868D-02 0.388D-01 0.222D-01 0.407D+00 0.541D+00
 Gap=     0.226 Goal=   None    Shift=    0.000
 Gap=     0.114 Goal=   None    Shift=    0.000
 RMSDP=1.60D-04 MaxDP=2.08D-02 DE=-3.15D-04 OVMax= 1.66D-02

 Cycle   7  Pass 1  IDiag  1:
 RMSU=  9.20D-05    CP:  7.99D-01  9.54D-01  7.06D-01  6.37D-01  9.58D-01
                    CP:  1.04D+00
 E= -504.824006850522     Delta-E=       -0.000183770791 Rises=F Damp=F
 DIIS: error= 4.25D-04 at cycle   7 NSaved=   7.
 NSaved= 7 IEnMin= 7 EnMin= -504.824006850522     IErMin= 7 ErrMin= 4.25D-04
 ErrMax= 4.25D-04 EMaxC= 1.00D-01 BMatC= 1.76D-04 BMatP= 6.79D-04
 IDIUse=3 WtCom= 9.96D-01 WtEn= 4.25D-03
 Coeff-Com:  0.232D-02-0.116D-01-0.154D-01-0.537D-01 0.943D-01 0.351D+00
 Coeff-Com:  0.633D+00
 Coeff-En:   0.000D+00 0.000D+00 0.000D+00 0.000D+00 0.000D+00 0.000D+00
 Coeff-En:   0.100D+01
 Coeff:      0.231D-02-0.116D-01-0.153D-01-0.535D-01 0.939D-01 0.350D+00
 Coeff:      0.634D+00
 Gap=     0.226 Goal=   None    Shift=    0.000
 Gap=     0.114 Goal=   None    Shift=    0.000
 RMSDP=1.53D-04 MaxDP=2.28D-02 DE=-1.84D-04 OVMax= 1.35D-02

 Cycle   8  Pass 1  IDiag  1:
 RMSU=  5.90D-05    CP:  8.01D-01  9.58D-01  7.15D-01  6.30D-01  1.02D+00
                    CP:  1.50D+00  8.08D-01
 E= -504.824100028326     Delta-E=       -0.000093177805 Rises=F Damp=F
 DIIS: error= 2.06D-04 at cycle   8 NSaved=   8.
 NSaved= 8 IEnMin= 8 EnMin= -504.824100028326     IErMin= 8 ErrMin= 2.06D-04
 ErrMax= 2.06D-04 EMaxC= 1.00D-01 BMatC= 4.92D-05 BMatP= 1.76D-04
 IDIUse=3 WtCom= 9.98D-01 WtEn= 2.06D-03
 Coeff-Com:  0.183D-02-0.106D-02-0.224D-01-0.507D-01-0.158D+00-0.957D-01
 Coeff-Com:  0.364D+00 0.962D+00
 Coeff-En:   0.000D+00 0.000D+00 0.000D+00 0.000D+00 0.000D+00 0.000D+00
 Coeff-En:   0.000D+00 0.100D+01
 Coeff:      0.182D-02-0.106D-02-0.224D-01-0.506D-01-0.158D+00-0.955D-01
 Coeff:      0.364D+00 0.962D+00
 Gap=     0.226 Goal=   None    Shift=    0.000
 Gap=     0.115 Goal=   None    Shift=    0.000
 RMSDP=1.25D-04 MaxDP=9.41D-03 DE=-9.32D-05 OVMax= 1.89D-02

 Cycle   9  Pass 1  IDiag  1:
 RMSU=  2.58D-05    CP:  8.01D-01  9.53D-01  7.14D-01  6.28D-01  1.10D+00
                    CP:  1.88D+00  1.14D+00  1.43D+00
 E= -504.824157681827     Delta-E=       -0.000057653501 Rises=F Damp=F
 DIIS: error= 6.18D-05 at cycle   9 NSaved=   9.
 NSaved= 9 IEnMin= 9 EnMin= -504.824157681827     IErMin= 9 ErrMin= 6.18D-05
 ErrMax= 6.18D-05 EMaxC= 1.00D-01 BMatC= 6.26D-06 BMatP= 4.92D-05
 IDIUse=1 WtCom= 1.00D+00 WtEn= 0.00D+00
 Coeff-Com: -0.272D-03 0.233D-02 0.277D-02 0.157D-02-0.331D-01-0.779D-01
 Coeff-Com: -0.959D-01 0.132D+00 0.107D+01
 Coeff:     -0.272D-03 0.233D-02 0.277D-02 0.157D-02-0.331D-01-0.779D-01
 Coeff:     -0.959D-01 0.132D+00 0.107D+01
 Gap=     0.226 Goal=   None    Shift=    0.000
 Gap=     0.115 Goal=   None    Shift=    0.000
 RMSDP=6.28D-05 MaxDP=3.95D-03 DE=-5.77D-05 OVMax= 8.88D-03

 Cycle  10  Pass 1  IDiag  1:
 RMSU=  1.69D-05    CP:  8.01D-01  9.52D-01  7.18D-01  6.23D-01  1.12D+00
                    CP:  2.07D+00  1.28D+00  1.72D+00  1.30D+00
 E= -504.824169010646     Delta-E=       -0.000011328819 Rises=F Damp=F
 DIIS: error= 2.74D-05 at cycle  10 NSaved=  10.
 NSaved=10 IEnMin=10 EnMin= -504.824169010646     IErMin=10 ErrMin= 2.74D-05
 ErrMax= 2.74D-05 EMaxC= 1.00D-01 BMatC= 1.76D-06 BMatP= 6.26D-06
 IDIUse=1 WtCom= 1.00D+00 WtEn= 0.00D+00
 Coeff-Com: -0.574D-03 0.120D-02 0.838D-02 0.135D-01 0.351D-01 0.655D-02
 Coeff-Com: -0.148D+00-0.211D+00 0.374D+00 0.920D+00
 Coeff:     -0.574D-03 0.120D-02 0.838D-02 0.135D-01 0.351D-01 0.655D-02
 Coeff:     -0.148D+00-0.211D+00 0.374D+00 0.920D+00
 Gap=     0.226 Goal=   None    Shift=    0.000
 Gap=     0.115 Goal=   None    Shift=    0.000
 RMSDP=3.18D-05 MaxDP=2.92D-03 DE=-1.13D-05 OVMax= 4.18D-03

 Cycle  11  Pass 1  IDiag  1:
 RMSU=  4.22D-06    CP:  8.02D-01  9.53D-01  7.18D-01  6.23D-01  1.13D+00
                    CP:  2.16D+00  1.30D+00  1.93D+00  1.61D+00  1.24D+00
 E= -504.824171291357     Delta-E=       -0.000002280711 Rises=F Damp=F
 DIIS: error= 1.30D-05 at cycle  11 NSaved=  11.
 NSaved=11 IEnMin=11 EnMin= -504.824171291357     IErMin=11 ErrMin= 1.30D-05
 ErrMax= 1.30D-05 EMaxC= 1.00D-01 BMatC= 4.65D-07 BMatP= 1.76D-06
 IDIUse=1 WtCom= 1.00D+00 WtEn= 0.00D+00
 Coeff-Com: -0.112D-03 0.503D-05 0.296D-02 0.419D-02 0.202D-01 0.196D-01
 Coeff-Com: -0.467D-01-0.104D+00-0.755D-01 0.399D+00 0.780D+00
 Coeff:     -0.112D-03 0.503D-05 0.296D-02 0.419D-02 0.202D-01 0.196D-01
 Coeff:     -0.467D-01-0.104D+00-0.755D-01 0.399D+00 0.780D+00
 Gap=     0.226 Goal=   None    Shift=    0.000
 Gap=     0.115 Goal=   None    Shift=    0.000
 RMSDP=1.18D-05 MaxDP=1.05D-03 DE=-2.28D-06 OVMax= 1.42D-03

 Cycle  12  Pass 1  IDiag  1:
 RMSU=  1.77D-06    CP:  8.02D-01  9.53D-01  7.18D-01  6.22D-01  1.14D+00
                    CP:  2.19D+00  1.31D+00  1.99D+00  1.73D+00  1.35D+00
                    CP:  1.09D+00
 E= -504.824171624083     Delta-E=       -0.000000332726 Rises=F Damp=F
 DIIS: error= 4.18D-06 at cycle  12 NSaved=  12.
 NSaved=12 IEnMin=12 EnMin= -504.824171624083     IErMin=12 ErrMin= 4.18D-06
 ErrMax= 4.18D-06 EMaxC= 1.00D-01 BMatC= 5.37D-08 BMatP= 4.65D-07
 IDIUse=1 WtCom= 1.00D+00 WtEn= 0.00D+00
 Coeff-Com:  0.697D-04-0.207D-03-0.203D-03-0.892D-03 0.133D-02 0.586D-02
 Coeff-Com:  0.503D-02 0.111D-02-0.929D-01-0.865D-02 0.281D+00 0.808D+00
 Coeff:      0.697D-04-0.207D-03-0.203D-03-0.892D-03 0.133D-02 0.586D-02
 Coeff:      0.503D-02 0.111D-02-0.929D-01-0.865D-02 0.281D+00 0.808D+00
 Gap=     0.226 Goal=   None    Shift=    0.000
 Gap=     0.115 Goal=   None    Shift=    0.000
 RMSDP=4.50D-06 MaxDP=3.53D-04 DE=-3.33D-07 OVMax= 4.57D-04

 Cycle  13  Pass 1  IDiag  1:
 RMSU=  7.02D-07    CP:  8.02D-01  9.52D-01  7.18D-01  6.22D-01  1.14D+00
                    CP:  2.20D+00  1.31D+00  2.01D+00  1.76D+00  1.41D+00
                    CP:  1.11D+00  1.05D+00
 E= -504.824171658347     Delta-E=       -0.000000034264 Rises=F Damp=F
 DIIS: error= 1.18D-06 at cycle  13 NSaved=  13.
 NSaved=13 IEnMin=13 EnMin= -504.824171658347     IErMin=13 ErrMin= 1.18D-06
 ErrMax= 1.18D-06 EMaxC= 1.00D-01 BMatC= 4.21D-09 BMatP= 5.37D-08
 IDIUse=1 WtCom= 1.00D+00 WtEn= 0.00D+00
 Coeff-Com:  0.305D-04-0.579D-04-0.332D-03-0.696D-03-0.155D-02-0.113D-03
 Coeff-Com:  0.525D-02 0.105D-01-0.201D-01-0.423D-01 0.299D-02 0.233D+00
 Coeff-Com:  0.813D+00
 Coeff:      0.305D-04-0.579D-04-0.332D-03-0.696D-03-0.155D-02-0.113D-03
 Coeff:      0.525D-02 0.105D-01-0.201D-01-0.423D-01 0.299D-02 0.233D+00
 Coeff:      0.813D+00
 Gap=     0.226 Goal=   None    Shift=    0.000
 Gap=     0.115 Goal=   None    Shift=    0.000
 RMSDP=1.12D-06 MaxDP=7.76D-05 DE=-3.43D-08 OVMax= 1.18D-04

 Cycle  14  Pass 1  IDiag  1:
 RMSU=  2.94D-07    CP:  8.02D-01  9.52D-01  7.18D-01  6.22D-01  1.14D+00
                    CP:  2.21D+00  1.32D+00  2.01D+00  1.76D+00  1.42D+00
                    CP:  1.14D+00  1.12D+00  9.38D-01
 E= -504.824171661084     Delta-E=       -0.000000002737 Rises=F Damp=F
 DIIS: error= 7.48D-07 at cycle  14 NSaved=  14.
 NSaved=14 IEnMin=14 EnMin= -504.824171661084     IErMin=14 ErrMin= 7.48D-07
 ErrMax= 7.48D-07 EMaxC= 1.00D-01 BMatC= 7.40D-10 BMatP= 4.21D-09
 IDIUse=1 WtCom= 1.00D+00 WtEn= 0.00D+00
 Coeff-Com:  0.569D-07 0.641D-05-0.734D-04-0.121D-03-0.585D-03-0.535D-03
 Coeff-Com:  0.983D-03 0.320D-02 0.432D-02-0.132D-01-0.347D-01-0.261D-01
 Coeff-Com:  0.287D+00 0.780D+00
 Coeff:      0.569D-07 0.641D-05-0.734D-04-0.121D-03-0.585D-03-0.535D-03
 Coeff:      0.983D-03 0.320D-02 0.432D-02-0.132D-01-0.347D-01-0.261D-01
 Coeff:      0.287D+00 0.780D+00
 Gap=     0.226 Goal=   None    Shift=    0.000
 Gap=     0.115 Goal=   None    Shift=    0.000
 RMSDP=3.54D-07 MaxDP=4.41D-05 DE=-2.74D-09 OVMax= 2.92D-05

 Cycle  15  Pass 1  IDiag  1:
 RMSU=  8.43D-08    CP:  8.02D-01  9.52D-01  7.18D-01  6.22D-01  1.14D+00
                    CP:  2.21D+00  1.31D+00  2.02D+00  1.77D+00  1.42D+00
                    CP:  1.15D+00  1.14D+00  1.01D+00  9.13D-01
 E= -504.824171661440     Delta-E=       -0.000000000357 Rises=F Damp=F
 DIIS: error= 3.77D-07 at cycle  15 NSaved=  15.
 NSaved=15 IEnMin=15 EnMin= -504.824171661440     IErMin=15 ErrMin= 3.77D-07
 ErrMax= 3.77D-07 EMaxC= 1.00D-01 BMatC= 1.62D-10 BMatP= 7.40D-10
 IDIUse=1 WtCom= 1.00D+00 WtEn= 0.00D+00
 Coeff-Com: -0.528D-05 0.141D-04 0.296D-04 0.600D-04 0.106D-05-0.184D-03
 Coeff-Com: -0.580D-03-0.377D-03 0.521D-02 0.210D-02-0.153D-01-0.537D-01
 Coeff-Com: -0.329D-01 0.304D+00 0.792D+00
 Coeff:     -0.528D-05 0.141D-04 0.296D-04 0.600D-04 0.106D-05-0.184D-03
 Coeff:     -0.580D-03-0.377D-03 0.521D-02 0.210D-02-0.153D-01-0.537D-01
 Coeff:     -0.329D-01 0.304D+00 0.792D+00
 Gap=     0.226 Goal=   None    Shift=    0.000
 Gap=     0.115 Goal=   None    Shift=    0.000
 RMSDP=1.51D-07 MaxDP=1.38D-05 DE=-3.57D-10 OVMax= 1.25D-05

 Cycle  16  Pass 1  IDiag  1:
 RMSU=  4.14D-08    CP:  8.02D-01  9.53D-01  7.18D-01  6.22D-01  1.14D+00
                    CP:  2.21D+00  1.31D+00  2.02D+00  1.77D+00  1.42D+00
                    CP:  1.15D+00  1.14D+00  1.03D+00  9.63D-01  1.05D+00
 E= -504.824171661526     Delta-E=       -0.000000000085 Rises=F Damp=F
 DIIS: error= 1.66D-07 at cycle  16 NSaved=  16.
 NSaved=16 IEnMin=16 EnMin= -504.824171661526     IErMin=16 ErrMin= 1.66D-07
 ErrMax= 1.66D-07 EMaxC= 1.00D-01 BMatC= 1.82D-11 BMatP= 1.62D-10
 IDIUse=1 WtCom= 1.00D+00 WtEn= 0.00D+00
 Coeff-Com: -0.279D-06 0.621D-06 0.143D-04 0.181D-04 0.646D-04 0.463D-04
 Coeff-Com: -0.224D-03-0.428D-03 0.230D-04 0.231D-02 0.284D-02-0.420D-02
 Coeff-Com: -0.516D-01-0.817D-01 0.124D+00 0.101D+01
 Coeff:     -0.279D-06 0.621D-06 0.143D-04 0.181D-04 0.646D-04 0.463D-04
 Coeff:     -0.224D-03-0.428D-03 0.230D-04 0.231D-02 0.284D-02-0.420D-02
 Coeff:     -0.516D-01-0.817D-01 0.124D+00 0.101D+01
 Gap=     0.226 Goal=   None    Shift=    0.000
 Gap=     0.115 Goal=   None    Shift=    0.000
 RMSDP=7.72D-08 MaxDP=7.28D-06 DE=-8.55D-11 OVMax= 4.18D-06

 Cycle  17  Pass 1  IDiag  1:
 RMSU=  1.84D-08    CP:  8.02D-01  9.53D-01  7.18D-01  6.22D-01  1.14D+00
                    CP:  2.21D+00  1.32D+00  2.02D+00  1.77D+00  1.42D+00
                    CP:  1.15D+00  1.14D+00  1.03D+00  1.01D+00  1.16D+00
                    CP:  9.83D-01
 E= -504.824171661542     Delta-E=       -0.000000000017 Rises=F Damp=F
 DIIS: error= 5.03D-08 at cycle  17 NSaved=  17.
 NSaved=17 IEnMin=17 EnMin= -504.824171661542     IErMin=17 ErrMin= 5.03D-08
 ErrMax= 5.03D-08 EMaxC= 1.00D-01 BMatC= 3.72D-12 BMatP= 1.82D-11
 IDIUse=1 WtCom= 1.00D+00 WtEn= 0.00D+00
 Coeff-Com:  0.785D-06-0.201D-05 0.489D-06-0.252D-05 0.232D-04 0.438D-04
 Coeff-Com:  0.137D-04-0.828D-04-0.799D-03 0.507D-03 0.353D-02 0.718D-02
 Coeff-Com: -0.132D-01-0.779D-01-0.876D-01 0.375D+00 0.793D+00
 Coeff:      0.785D-06-0.201D-05 0.489D-06-0.252D-05 0.232D-04 0.438D-04
 Coeff:      0.137D-04-0.828D-04-0.799D-03 0.507D-03 0.353D-02 0.718D-02
 Coeff:     -0.132D-01-0.779D-01-0.876D-01 0.375D+00 0.793D+00
 Gap=     0.226 Goal=   None    Shift=    0.000
 Gap=     0.115 Goal=   None    Shift=    0.000
 RMSDP=1.86D-08 MaxDP=2.20D-06 DE=-1.68D-11 OVMax= 4.44D-07

 Cycle  18  Pass 1  IDiag  1:
 RMSU=  7.78D-09    CP:  8.02D-01  9.53D-01  7.18D-01  6.22D-01  1.14D+00
                    CP:  2.21D+00  1.31D+00  2.02D+00  1.77D+00  1.42D+00
                    CP:  1.15D+00  1.14D+00  1.03D+00  1.00D+00  1.19D+00
                    CP:  1.08D+00  8.17D-01
 E= -504.824171661539     Delta-E=        0.000000000004 Rises=F Damp=F
 DIIS: error= 1.76D-08 at cycle  18 NSaved=  18.
 NSaved=18 IEnMin=17 EnMin= -504.824171661542     IErMin=18 ErrMin= 1.76D-08
 ErrMax= 1.76D-08 EMaxC= 1.00D-01 BMatC= 7.32D-13 BMatP= 3.72D-12
 IDIUse=1 WtCom= 1.00D+00 WtEn= 0.00D+00
 Coeff-Com:  0.228D-06-0.673D-06-0.137D-05-0.155D-05 0.286D-05 0.688D-05
 Coeff-Com:  0.366D-04 0.166D-04-0.255D-03-0.124D-03 0.846D-03 0.310D-02
 Coeff-Com:  0.345D-02-0.129D-01-0.529D-01-0.318D-01 0.297D+00 0.794D+00
 Coeff:      0.228D-06-0.673D-06-0.137D-05-0.155D-05 0.286D-05 0.688D-05
 Coeff:      0.366D-04 0.166D-04-0.255D-03-0.124D-03 0.846D-03 0.310D-02
 Coeff:      0.345D-02-0.129D-01-0.529D-01-0.318D-01 0.297D+00 0.794D+00
 Gap=     0.226 Goal=   None    Shift=    0.000
 Gap=     0.115 Goal=   None    Shift=    0.000
 RMSDP=8.43D-09 MaxDP=7.14D-07 DE= 3.87D-12 OVMax= 5.39D-07

 SCF Done:  E(UB3LYP) =  -504.824171662     A.U. after   18 cycles
             Convg  =    0.8428D-08             -V/T =  2.0046
 <Sx>= 0.0000 <Sy>= 0.0000 <Sz>= 0.5000 <S**2>= 0.7580 S= 0.5040
 <L.S>= 0.000000000000E+00
 KE= 5.024987108008D+02 PE=-2.469751547322D+03 EE= 8.152612176997D+02
 Annihilation of the first spin contaminant:
 S**2 before annihilation     0.7580,   after     0.7500
 Leave Link  502 at Sat Feb 15 18:06:55 2014, MaxMem= 4026531840 cpu:    2188.3
 (Enter /usr/caen/gaussian-09revc/g09/l801.exe)
 Range of M.O.s used for correlation:     1   375
 NBasis=   375 NAE=    45 NBE=    44 NFC=     0 NFV=     0
 NROrb=    375 NOA=    45 NOB=    44 NVA=   330 NVB=   331

 **** Warning!!: The largest alpha MO coefficient is  0.11409770D+03


 **** Warning!!: The largest beta MO coefficient is  0.11715951D+03

 Leave Link  801 at Sat Feb 15 18:06:55 2014, MaxMem= 4026531840 cpu:       0.3
 (Enter /usr/caen/gaussian-09revc/g09/l1101.exe)
 Using compressed storage, NAtomX=    30.
 Will process  31 centers per pass.
 Leave Link 1101 at Sat Feb 15 18:06:57 2014, MaxMem= 4026531840 cpu:       6.9
 (Enter /usr/caen/gaussian-09revc/g09/l1102.exe)
 Symmetrizing basis deriv contribution to polar:
 IMax=3 JMax=2 DiffMx= 0.00D+00
 Leave Link 1102 at Sat Feb 15 18:06:57 2014, MaxMem= 4026531840 cpu:       1.4
 (Enter /usr/caen/gaussian-09revc/g09/l1110.exe)
 Forming Gx(P) for the SCF density, NAtomX=    30.
 Integral derivatives from FoFDir/FoFCou, PRISM(SPDF).
 Do as many integral derivatives as possible in FoFDir.
 G2DrvN: MDV=    4026531496.
 G2DrvN: will do    31 centers at a time, making    1 passes doing MaxLOS=2.
 Calling FoFCou, ICntrl=  3107 FMM=F I1Cent=   0 AccDes= 0.00D+00.
 FoFCou: FMM=F IPFlag=           0 FMFlag=      100000 FMFlg1=           0
         NFxFlg=           0 DoJE=F BraDBF=F KetDBF=F FulRan=T
         Omega=  0.000000  0.000000  1.000000  0.000000  0.000000 ICntrl=    3107 IOpCl=  1
         NMat0=    1 NMatS0=    1 NMatT0=    0 NMatD0=    1 NMtDS0=    0 NMtDT0=    0
         I1Cent=           0 NGrid=           0.
 Symmetry not used in FoFCou.
 FoFDir/FoFCou used for L=0 through L=2.
 End of G2Drv Frequency-dependent properties file   721 does not exist.
 End of G2Drv Frequency-dependent properties file   722 does not exist.
 Leave Link 1110 at Sat Feb 15 18:11:12 2014, MaxMem= 4026531840 cpu:    2026.6
 (Enter /usr/caen/gaussian-09revc/g09/l1002.exe)
 Minotr:  UHF open shell wavefunction.
          IDoAtm=111111111111111111111111111111
          Direct CPHF calculation.
          Differentiating once with respect to nuclear coordinates.
          Requested convergence is 1.0D-06 RMS, and 1.0D-05 maximum.
          Secondary convergence is 1.0D-12 RMS, and 1.0D-12 maximum.
          NewPWx=T KeepS1=F KeepF1=F KeepIn=T MapXYZ=F SortEE=F KeepMc=T.
          MDV=    4026531536 using IRadAn=       2.
 Generate precomputed XC quadrature information.
          Solving linear equations simultaneously, MaxMat=       0.
 Integrals replicated using symmetry in FoFDir.
 MinBra= 0 MaxBra= 2 Meth= 1.
 IRaf=       0 NMat=  93 IRICut=     232 DoRegI=T DoRafI=T ISym2E= 2 JSym2E=2.
          There are    93 degrees of freedom in the 1st order CPHF.  IDoFFX=5.
     87 vectors produced by pass  0 Test12= 3.16D-10 1.08D-07 XBig12= 4.03D-01 2.81D-01.
 AX will form    87 AO Fock derivatives at one time.
     87 vectors produced by pass  1 Test12= 3.16D-10 1.08D-07 XBig12= 5.42D-02 3.66D-02.
     87 vectors produced by pass  2 Test12= 3.16D-10 1.08D-07 XBig12= 2.25D-04 2.36D-03.
     87 vectors produced by pass  3 Test12= 3.16D-10 1.08D-07 XBig12= 3.13D-06 1.84D-04.
     65 vectors produced by pass  4 Test12= 3.16D-10 1.08D-07 XBig12= 2.27D-08 1.30D-05.
     15 vectors produced by pass  5 Test12= 3.16D-10 1.08D-07 XBig12= 8.09D-11 5.82D-07.
      4 vectors produced by pass  6 Test12= 3.16D-10 1.08D-07 XBig12= 4.86D-12 2.40D-07.
 Inverted reduced A of dimension   432 with in-core refinement.
 End of Minotr Frequency-dependent properties file   721 does not exist.
 End of Minotr Frequency-dependent properties file   722 does not exist.
 Leave Link 1002 at Sat Feb 15 18:30:19 2014, MaxMem= 4026531840 cpu:    9173.1
 (Enter /usr/caen/gaussian-09revc/g09/l601.exe)
 Copying SCF densities to generalized density rwf, IOpCl= 1 IROHF=0.

 **********************************************************************

            Population analysis using the SCF density.

 **********************************************************************

 Orbital symmetries:
 Alpha Orbitals:
       Occupied  (A) (A) (A) (A) (A) (A) (A) (A) (A) (A) (A) (A)
                 (A) (A) (A) (A) (A) (A) (A) (A) (A) (A) (A) (A)
                 (A) (A) (A) (A) (A) (A) (A) (A) (A) (A) (A) (A)
                 (A) (A) (A) (A) (A) (A) (A) (A) (A)
       Virtual   (A) (A) (A) (A) (A) (A) (A) (A) (A) (A) (A) (A)
                 (A) (A) (A) (A) (A) (A) (A) (A) (A) (A) (A) (A)
                 (A) (A) (A) (A) (A) (A) (A) (A) (A) (A) (A) (A)
                 (A) (A) (A) (A) (A) (A) (A) (A) (A) (A) (A) (A)
                 (A) (A) (A) (A) (A) (A) (A) (A) (A) (A) (A) (A)
                 (A) (A) (A) (A) (A) (A) (A) (A) (A) (A) (A) (A)
                 (A) (A) (A) (A) (A) (A) (A) (A) (A) (A) (A) (A)
                 (A) (A) (A) (A) (A) (A) (A) (A) (A) (A) (A) (A)
                 (A) (A) (A) (A) (A) (A) (A) (A) (A) (A) (A) (A)
                 (A) (A) (A) (A) (A) (A) (A) (A) (A) (A) (A) (A)
                 (A) (A) (A) (A) (A) (A) (A) (A) (A) (A) (A) (A)
                 (A) (A) (A) (A) (A) (A) (A) (A) (A) (A) (A) (A)
                 (A) (A) (A) (A) (A) (A) (A) (A) (A) (A) (A) (A)
                 (A) (A) (A) (A) (A) (A) (A) (A) (A) (A) (A) (A)
                 (A) (A) (A) (A) (A) (A) (A) (A) (A) (A) (A) (A)
                 (A) (A) (A) (A) (A) (A) (A) (A) (A) (A) (A) (A)
                 (A) (A) (A) (A) (A) (A) (A) (A) (A) (A) (A) (A)
                 (A) (A) (A) (A) (A) (A) (A) (A) (A) (A) (A) (A)
                 (A) (A) (A) (A) (A) (A) (A) (A) (A) (A) (A) (A)
                 (A) (A) (A) (A) (A) (A) (A) (A) (A) (A) (A) (A)
                 (A) (A) (A) (A) (A) (A) (A) (A) (A) (A) (A) (A)
                 (A) (A) (A) (A) (A) (A) (A) (A) (A) (A) (A) (A)
                 (A) (A) (A) (A) (A) (A) (A) (A) (A) (A) (A) (A)
                 (A) (A) (A) (A) (A) (A) (A) (A) (A) (A) (A) (A)
                 (A) (A) (A) (A) (A) (A) (A) (A) (A) (A) (A) (A)
                 (A) (A) (A) (A) (A) (A) (A) (A) (A) (A) (A) (A)
                 (A) (A) (A) (A) (A) (A) (A) (A) (A) (A) (A) (A)
                 (A) (A) (A) (A) (A) (A)
 Beta  Orbitals:
       Occupied  (A) (A) (A) (A) (A) (A) (A) (A) (A) (A) (A) (A)
                 (A) (A) (A) (A) (A) (A) (A) (A) (A) (A) (A) (A)
                 (A) (A) (A) (A) (A) (A) (A) (A) (A) (A) (A) (A)
                 (A) (A) (A) (A) (A) (A) (A) (A)
       Virtual   (A) (A) (A) (A) (A) (A) (A) (A) (A) (A) (A) (A)
                 (A) (A) (A) (A) (A) (A) (A) (A) (A) (A) (A) (A)
                 (A) (A) (A) (A) (A) (A) (A) (A) (A) (A) (A) (A)
                 (A) (A) (A) (A) (A) (A) (A) (A) (A) (A) (A) (A)
                 (A) (A) (A) (A) (A) (A) (A) (A) (A) (A) (A) (A)
                 (A) (A) (A) (A) (A) (A) (A) (A) (A) (A) (A) (A)
                 (A) (A) (A) (A) (A) (A) (A) (A) (A) (A) (A) (A)
                 (A) (A) (A) (A) (A) (A) (A) (A) (A) (A) (A) (A)
                 (A) (A) (A) (A) (A) (A) (A) (A) (A) (A) (A) (A)
                 (A) (A) (A) (A) (A) (A) (A) (A) (A) (A) (A) (A)
                 (A) (A) (A) (A) (A) (A) (A) (A) (A) (A) (A) (A)
                 (A) (A) (A) (A) (A) (A) (A) (A) (A) (A) (A) (A)
                 (A) (A) (A) (A) (A) (A) (A) (A) (A) (A) (A) (A)
                 (A) (A) (A) (A) (A) (A) (A) (A) (A) (A) (A) (A)
                 (A) (A) (A) (A) (A) (A) (A) (A) (A) (A) (A) (A)
                 (A) (A) (A) (A) (A) (A) (A) (A) (A) (A) (A) (A)
                 (A) (A) (A) (A) (A) (A) (A) (A) (A) (A) (A) (A)
                 (A) (A) (A) (A) (A) (A) (A) (A) (A) (A) (A) (A)
                 (A) (A) (A) (A) (A) (A) (A) (A) (A) (A) (A) (A)
                 (A) (A) (A) (A) (A) (A) (A) (A) (A) (A) (A) (A)
                 (A) (A) (A) (A) (A) (A) (A) (A) (A) (A) (A) (A)
                 (A) (A) (A) (A) (A) (A) (A) (A) (A) (A) (A) (A)
                 (A) (A) (A) (A) (A) (A) (A) (A) (A) (A) (A) (A)
                 (A) (A) (A) (A) (A) (A) (A) (A) (A) (A) (A) (A)
                 (A) (A) (A) (A) (A) (A) (A) (A) (A) (A) (A) (A)
                 (A) (A) (A) (A) (A) (A) (A) (A) (A) (A) (A) (A)
                 (A) (A) (A) (A) (A) (A) (A) (A) (A) (A) (A) (A)
                 (A) (A) (A) (A) (A) (A) (A)
 The electronic state is 2-A.
 Alpha  occ. eigenvalues --  -19.18470 -19.17753 -10.23659 -10.21732 -10.18986
 Alpha  occ. eigenvalues --  -10.18065 -10.17982 -10.17773 -10.17275 -10.16195
 Alpha  occ. eigenvalues --  -10.16152  -1.13097  -0.88222  -0.83944  -0.81436
 Alpha  occ. eigenvalues --   -0.76282  -0.69967  -0.68802  -0.68573  -0.61743
 Alpha  occ. eigenvalues --   -0.57806  -0.56482  -0.52960  -0.49715  -0.48738
 Alpha  occ. eigenvalues --   -0.47823  -0.45392  -0.44067  -0.43844  -0.43437
 Alpha  occ. eigenvalues --   -0.41571  -0.40556  -0.39690  -0.38946  -0.38553
 Alpha  occ. eigenvalues --   -0.37415  -0.36561  -0.35927  -0.34892  -0.33595
 Alpha  occ. eigenvalues --   -0.32910  -0.32782  -0.32193  -0.25913  -0.24192
 Alpha virt. eigenvalues --   -0.01637  -0.00545   0.00048   0.00458   0.00932
 Alpha virt. eigenvalues --    0.01672   0.01873   0.02507   0.03471   0.03760
 Alpha virt. eigenvalues --    0.03775   0.04372   0.04780   0.05597   0.06119
 Alpha virt. eigenvalues --    0.06255   0.07073   0.07338   0.07596   0.08257
 Alpha virt. eigenvalues --    0.08733   0.09587   0.09962   0.10792   0.10989
 Alpha virt. eigenvalues --    0.11014   0.11587   0.11799   0.12128   0.12249
 Alpha virt. eigenvalues --    0.12697   0.13028   0.13383   0.13408   0.13661
 Alpha virt. eigenvalues --    0.13887   0.14412   0.14743   0.14962   0.15252
 Alpha virt. eigenvalues --    0.15419   0.15697   0.16247   0.16405   0.16536
 Alpha virt. eigenvalues --    0.17253   0.17782   0.17911   0.18158   0.18496
 Alpha virt. eigenvalues --    0.19313   0.19445   0.19941   0.19955   0.20295
 Alpha virt. eigenvalues --    0.20711   0.21058   0.21924   0.22269   0.22873
 Alpha virt. eigenvalues --    0.23378   0.23935   0.24199   0.24487   0.25168
 Alpha virt. eigenvalues --    0.25589   0.26054   0.26509   0.27039   0.27629
 Alpha virt. eigenvalues --    0.28678   0.29463   0.29756   0.30502   0.31070
 Alpha virt. eigenvalues --    0.31841   0.32111   0.32687   0.33288   0.33523
 Alpha virt. eigenvalues --    0.34493   0.34600   0.34885   0.35664   0.35959
 Alpha virt. eigenvalues --    0.36692   0.37507   0.38202   0.38353   0.40038
 Alpha virt. eigenvalues --    0.41041   0.43581   0.44644   0.45499   0.46212
 Alpha virt. eigenvalues --    0.47911   0.49059   0.49402   0.51296   0.51477
 Alpha virt. eigenvalues --    0.52915   0.53982   0.54797   0.54963   0.56309
 Alpha virt. eigenvalues --    0.56767   0.58500   0.59686   0.60968   0.61906
 Alpha virt. eigenvalues --    0.63210   0.63840   0.64588   0.65605   0.65915
 Alpha virt. eigenvalues --    0.66502   0.66618   0.67390   0.68056   0.68637
 Alpha virt. eigenvalues --    0.69401   0.69572   0.70364   0.71731   0.71938
 Alpha virt. eigenvalues --    0.72368   0.72651   0.73862   0.74531   0.75746
 Alpha virt. eigenvalues --    0.76163   0.77039   0.77960   0.79110   0.79876
 Alpha virt. eigenvalues --    0.80646   0.81865   0.86595   0.86758   0.92502
 Alpha virt. eigenvalues --    0.95739   0.96120   0.96488   1.00278   1.01945
 Alpha virt. eigenvalues --    1.02405   1.05274   1.07293   1.08912   1.10014
 Alpha virt. eigenvalues --    1.11108   1.12650   1.13799   1.14943   1.16356
 Alpha virt. eigenvalues --    1.18415   1.19850   1.21371   1.25136   1.26330
 Alpha virt. eigenvalues --    1.28294   1.30475   1.32194   1.34332   1.40452
 Alpha virt. eigenvalues --    1.41504   1.44370   1.45256   1.46164   1.46810
 Alpha virt. eigenvalues --    1.47781   1.48448   1.49457   1.51240   1.53009
 Alpha virt. eigenvalues --    1.54908   1.55115   1.56466   1.56898   1.57428
 Alpha virt. eigenvalues --    1.58523   1.59739   1.60200   1.60817   1.62152
 Alpha virt. eigenvalues --    1.62554   1.63680   1.64787   1.65681   1.66364
 Alpha virt. eigenvalues --    1.67666   1.68443   1.69480   1.70162   1.71342
 Alpha virt. eigenvalues --    1.72352   1.73210   1.73491   1.75008   1.75404
 Alpha virt. eigenvalues --    1.77774   1.78672   1.80021   1.80734   1.80973
 Alpha virt. eigenvalues --    1.83136   1.86247   1.86952   1.87949   1.91088
 Alpha virt. eigenvalues --    1.94349   1.96754   1.97212   1.97940   2.03630
 Alpha virt. eigenvalues --    2.04862   2.06399   2.06860   2.08143   2.10757
 Alpha virt. eigenvalues --    2.11780   2.12994   2.13598   2.15633   2.16761
 Alpha virt. eigenvalues --    2.20378   2.22497   2.23585   2.27114   2.27634
 Alpha virt. eigenvalues --    2.31137   2.34114   2.36256   2.38148   2.39112
 Alpha virt. eigenvalues --    2.40376   2.42078   2.45934   2.46218   2.47745
 Alpha virt. eigenvalues --    2.48753   2.49389   2.49866   2.50491   2.51229
 Alpha virt. eigenvalues --    2.52060   2.54147   2.54519   2.56398   2.57360
 Alpha virt. eigenvalues --    2.57881   2.59103   2.60152   2.60450   2.62206
 Alpha virt. eigenvalues --    2.63197   2.64837   2.65715   2.66732   2.69008
 Alpha virt. eigenvalues --    2.69562   2.72121   2.74400   2.75762   2.76048
 Alpha virt. eigenvalues --    2.76527   2.77668   2.80089   2.83299   2.83573
 Alpha virt. eigenvalues --    2.86265   2.88218   2.90353   2.93434   2.94691
 Alpha virt. eigenvalues --    2.95842   2.96541   2.97591   2.98749   3.00080
 Alpha virt. eigenvalues --    3.02389   3.07288   3.09547   3.12765   3.16701
 Alpha virt. eigenvalues --    3.17147   3.18754   3.22454   3.28223   3.39951
 Alpha virt. eigenvalues --    3.48050   3.51820   3.58150   3.68006   3.73844
 Alpha virt. eigenvalues --    3.76703   3.77643   3.77914   3.79678   3.81416
 Alpha virt. eigenvalues --    3.81904   3.83622   3.83769   3.86032   3.86641
 Alpha virt. eigenvalues --    3.98525   4.02474   4.09051   4.18988   4.28923
 Alpha virt. eigenvalues --    4.29267   4.31886   4.39616   4.88183   5.03894
 Alpha virt. eigenvalues --    5.08079   5.18950   5.46434   5.70389  23.73869
 Alpha virt. eigenvalues --   23.82592  23.82997  23.88186  23.89962  23.91298
 Alpha virt. eigenvalues --   23.95488  23.96937  23.97748  49.85020  49.89839
  Beta  occ. eigenvalues --  -19.18348 -19.16540 -10.23664 -10.20849 -10.19014
  Beta  occ. eigenvalues --  -10.18087 -10.17982 -10.17747 -10.17274 -10.16194
  Beta  occ. eigenvalues --  -10.16152  -1.11947  -0.86330  -0.83243  -0.80981
  Beta  occ. eigenvalues --   -0.75993  -0.69698  -0.68801  -0.68296  -0.61575
  Beta  occ. eigenvalues --   -0.56822  -0.55903  -0.51428  -0.49189  -0.48318
  Beta  occ. eigenvalues --   -0.47522  -0.45196  -0.43916  -0.43623  -0.42781
  Beta  occ. eigenvalues --   -0.40436  -0.40340  -0.39429  -0.38894  -0.37469
  Beta  occ. eigenvalues --   -0.37193  -0.36324  -0.35072  -0.34486  -0.33087
  Beta  occ. eigenvalues --   -0.32855  -0.32435  -0.32062  -0.24437
  Beta virt. eigenvalues --   -0.12963  -0.01581  -0.00522   0.00080   0.00520
  Beta virt. eigenvalues --    0.01045   0.01863   0.01902   0.02554   0.03491
  Beta virt. eigenvalues --    0.03785   0.03838   0.04416   0.04802   0.05755
  Beta virt. eigenvalues --    0.06155   0.06356   0.07173   0.07373   0.07661
  Beta virt. eigenvalues --    0.08272   0.08846   0.09629   0.09983   0.10832
  Beta virt. eigenvalues --    0.11037   0.11104   0.11665   0.11870   0.12186
  Beta virt. eigenvalues --    0.12355   0.12851   0.13060   0.13426   0.13488
  Beta virt. eigenvalues --    0.13705   0.13914   0.14488   0.14811   0.15059
  Beta virt. eigenvalues --    0.15278   0.15513   0.15806   0.16353   0.16437
  Beta virt. eigenvalues --    0.16556   0.17490   0.17949   0.18182   0.18282
  Beta virt. eigenvalues --    0.18687   0.19399   0.19526   0.20007   0.20169
  Beta virt. eigenvalues --    0.20383   0.20921   0.21103   0.21992   0.22361
  Beta virt. eigenvalues --    0.22960   0.23434   0.24023   0.24505   0.24823
  Beta virt. eigenvalues --    0.25313   0.25846   0.26180   0.26589   0.27126
  Beta virt. eigenvalues --    0.27864   0.28812   0.29501   0.30015   0.30583
  Beta virt. eigenvalues --    0.31232   0.32000   0.32208   0.32833   0.33501
  Beta virt. eigenvalues --    0.33726   0.34592   0.34638   0.34973   0.35803
[...]
 ,-0.00000254,-0.00000184,0.00001000,-0.00001737,-0.00000859,-0.0000022
 6,0.00000343,0.00000322,0.00001564,-0.00000277,-0.00000200,-0.00000381
 ,0.00000083,0.00000214,0.04006027,-0.06722272,-0.05016911,0.00984590,-
 0.00330635,-0.01316624,-0.04368682,0.07168091,0.00034619,-0.00061533,0
 .00186218,-0.00006634,-0.00012283,0.00029347,-0.00034131,0.00086818,-0
 .00004731,-0.00026822,-0.00000588,-0.00040719,0.00840134,-0.00235775,-
 0.01095536,-0.00002993,-0.00023323,-0.00108754,-0.00034529,0.00041667,
 -0.00100353,0.00033845,0.00015415,0.00005034,0.00030348,0.00013585,0.0
 0015710,-0.00026438,0.00024896,-0.00010085,-0.00007060,0.00001552,0.00
 009026,0.00005687,-0.00016712,0.00006236,0.00007058,-0.00008005,0.0000
 8891,0.00002163,0.00000816,0.00000777,-0.00003299,-0.00003354,0.000002
 16,-0.00000106,0.00001457,0.00000692,-0.00000169,-0.00000088,0.0000068
 0,0.00000235,-0.00001092,-0.00000197,0.00000082,0.00000196,0.00000387,
 0.00000743,0.00000053,-0.00000141,-0.00000252,-0.00000013,-0.00000072,
 0.10589625,-0.05727634,-0.19840297,-0.00379856,0.00308415,0.00904754,-
 0.11788211,0.06595079,0.22477295,-0.00004254,-0.00005463,-0.00004812,0
 .00001336,-0.00000691,0.00001377,0.00002416,-0.00001371,-0.00000100,-0
 .00001985,0.00001020,-0.00000166,0.00009507,0.00009316,0.00028318,-0.0
 0009171,-0.00014632,-0.00008947,-0.00013268,0.00001088,-0.00018723,0.0
 0001875,-0.00022137,0.00012515,0.00005565,-0.00002954,-0.00003482,0.00
 067450,0.00087757,-0.00029718,-0.00009707,0.00001943,-0.00027179,-0.00
 081613,0.00052746,0.00017520,-0.00166439,0.02411556,-0.01450806,0.0009
 0333,-0.00100046,-0.00038227,-0.00413004,0.00339904,0.00117922,-0.0780
 4884,0.00506771,-0.00318265,-0.00032279,0.00440777,-0.00274144,-0.0005
 9877,-0.02714993,0.01689757,0.00101435,0.00051279,0.00033653,0.0007881
 4,-0.00072335,0.00039557,-0.00522469,-0.00413976,0.00020932,-0.0001421
 9,0.00005489,-0.00012208,0.00001680,0.00001114,0.00003559,0.00002233,-
 0.00000205,0.00000844,0.56845329,-0.00003164,-0.00002134,-0.00000553,-
 0.00000155,-0.00000433,-0.00000261,0.00000235,-0.00000837,-0.00000095,
 -0.00000203,0.00001258,-0.00000286,-0.00008474,0.00017544,-0.00002442,
 -0.00002341,0.00000465,-0.00002980,-0.00062879,-0.00053111,0.00037629,
 0.00016974,-0.00012194,-0.00010413,0.00001629,-0.00002470,-0.00004725,
 0.00054748,0.00092746,-0.00068002,0.00016243,0.00001431,0.00016668,-0.
 00001387,-0.00058896,0.00072427,0.00654050,-0.02256696,0.00993504,-0.0
 0115637,0.00088618,0.00089838,0.00241611,-0.00081409,-0.00061300,0.002
 58187,-0.14481175,0.04432301,-0.00030795,0.00453555,-0.00231824,-0.005
 11559,-0.02178891,0.01184832,0.00131901,0.00074136,0.00041651,0.001722
 16,0.00128267,-0.00038167,-0.00193414,-0.00104811,-0.00025079,-0.00008
 558,0.00005045,-0.00004417,-0.00001505,-0.00003366,0.00005183,0.000033
 18,-0.00002164,0.00000253,0.00920941,0.49087890,0.00006178,0.00005081,
 0.00003088,-0.00000813,-0.00000088,-0.00000652,-0.00001196,-0.00000278
 ,-0.00000371,0.00002459,-0.00001052,0.00000549,-0.00006611,-0.00010528
 ,-0.00018016,0.00001762,0.00006998,0.00001925,0.00023462,0.00004548,0.
 00038113,0.00000322,0.00000445,-0.00008712,-0.00001121,-0.00001344,-0.
 00004167,0.00002277,-0.00030946,-0.00017232,0.00009532,-0.00001747,0.0
 0008599,-0.00013730,-0.00004222,0.00033866,-0.00179433,-0.00675740,0.0
 0550199,0.00047716,-0.00135226,0.00092838,0.00231959,-0.00283329,0.000
 02583,-0.00273435,0.04652692,-0.10937131,-0.00143330,0.02939031,-0.018
 70614,0.00239866,0.00098093,0.00059882,-0.00061229,-0.00133155,0.00093
 487,-0.00016278,0.00013907,-0.00014052,-0.00091516,-0.00143010,0.00080
 520,-0.00000015,-0.00001771,0.00005401,-0.00001850,0.00000204,0.000028
 83,0.00002854,-0.00001598,-0.00000408,-0.00590705,0.04891022,0.5232635
 4,-0.00004144,-0.00003146,-0.00002587,0.00000696,0.00000297,0.00000146
 ,0.00001135,-0.00000047,0.00000356,-0.00002129,0.00000428,-0.00000271,
 0.00009995,0.00009396,0.00014203,-0.00001113,-0.00009961,-0.00002641,0
 .00008400,0.00010776,-0.00024289,-0.00010861,0.00007851,0.00003810,-0.
 00001724,-0.00000587,0.00003216,-0.00000944,-0.00011015,0.00040384,-0.
 00000550,0.00003391,-0.00007844,0.00034176,0.00023225,-0.00025283,0.00
 072466,-0.00045701,-0.00082544,0.00001164,-0.00006880,0.00011371,-0.00
 000457,0.00016125,0.00011313,-0.00200599,0.00018508,0.00027064,-0.0000
 7450,0.00016857,-0.00046381,0.00069962,-0.00104003,0.00009348,-0.00000
 359,-0.00002620,-0.00004694,0.00048766,0.00002105,0.00008527,0.0001541
 9,-0.00001471,-0.00020634,0.00007394,-0.00001413,-0.00000156,0.0000065
 2,0.00003795,-0.00003189,-0.00002171,0.00001916,0.00000018,-0.20290287
 ,0.11097791,0.06172467,0.21948477,0.00003997,0.00003404,0.00002066,-0.
 00000746,0.00000162,-0.00000349,-0.00001064,0.00000207,-0.00000173,0.0
 0001708,-0.00000759,0.00000374,-0.00004156,-0.00009288,-0.00013673,0.0
 0002569,0.00007119,0.00003516,0.00025977,0.00020101,-0.00001879,-0.000
 08547,0.00010188,-0.00001655,-0.00002225,0.00000759,0.00000650,-0.0007
 7199,-0.00026439,0.00013508,0.00008127,0.00001187,0.00002489,0.0001978
 7,0.00025241,-0.00023760,-0.00137961,-0.00418423,0.00435313,-0.0003143
 3,0.00030896,0.00008955,0.00157439,-0.00116713,-0.00021316,0.02125545,
 -0.01593063,-0.00996689,-0.00017169,0.00106241,0.00016855,0.00142771,0
 .00092743,-0.00106787,-0.00006051,-0.00012877,0.00000477,-0.00114174,-
 0.00000760,0.00041672,-0.00016425,0.00052163,0.00011629,0.00004257,-0.
 00002727,0.00005668,-0.00000457,-0.00000534,0.00000050,0.00000107,-0.0
 0000458,-0.00000642,0.10990235,-0.12433629,-0.04362258,-0.12187003,0.1
 3637037,-0.00000748,-0.00001040,-0.00000481,0.00000142,-0.00000137,0.0
 0000288,0.00000165,-0.00000011,-0.00000070,-0.00000239,0.00000284,-0.0
 0000024,-0.00000240,0.00000380,0.00002985,-0.00000524,-0.00000737,-0.0
 0000544,-0.00005775,-0.00001701,-0.00004581,0.00000730,-0.00003435,0.0
 0003155,-0.00000071,0.00002339,0.00000548,0.00022928,0.00019778,0.0000
 5874,0.00000571,-0.00004511,0.00001505,-0.00006353,-0.00011668,-0.0000
 5113,0.00048777,0.00278759,-0.00187005,-0.00006723,0.00034150,0.000323
 35,-0.00068138,0.00073032,0.00054043,-0.01479648,0.01063032,0.00527614
 ,-0.00029694,-0.00074372,0.00063730,-0.00053733,-0.00046837,0.00042147
 ,0.00018514,-0.00007310,-0.00006816,0.00020890,-0.00011651,0.00020940,
 -0.00023670,-0.00015898,-0.00008684,-0.00004102,0.00001847,-0.00002592
 ,0.00000555,-0.00001313,-0.00000366,-0.00000275,-0.00000016,0.00000132
 ,0.06201540,-0.04453905,-0.07110710,-0.06828764,0.04569392,0.07444824,
 -0.00000021,0.00000119,0.00000752,-0.00000051,-0.00000410,0.00000151,-
 0.00000288,0.00000311,0.,0.00000315,0.00000057,-0.00000064,-0.00001192
 ,-0.00002808,-0.00002618,0.00001746,0.00001999,0.00000560,0.00000853,0
 .00000717,0.00001891,0.00000902,0.00000084,-0.00000076,-0.00002262,0.0
 0004746,0.00002593,-0.00016863,0.00009029,0.00005334,0.00010842,-0.000
 09960,0.00015946,-0.00007388,-0.00009642,-0.00010630,0.00019444,-0.000
 49233,-0.00112240,0.00007868,0.00016928,0.00017498,0.00000145,-0.00001
 091,0.00020274,-0.00139366,0.00002333,-0.00219806,0.00066078,0.0004771
 8,-0.00017821,0.00025111,0.00027644,0.00100080,0.00027380,-0.00014313,
 -0.00002997,0.00001661,0.00003795,0.00010667,-0.00009337,0.00006137,-0
 .00015815,-0.00004855,0.00002532,-0.00002783,0.00000509,-0.00002218,-0
 .00000859,-0.00000626,-0.00000217,0.00000406,-0.05126976,-0.00721252,-
 0.03061054,0.00382218,0.00491232,0.02529228,0.05036753,-0.00001149,-0.
 00000758,0.00000253,0.00000206,-0.00000149,0.00000145,0.00000175,0.000
 00259,0.00000057,-0.00000405,0.00000101,-0.00000205,0.00002534,-0.0000
 0296,0.00000955,0.00000346,-0.00001392,-0.00000219,0.00004220,0.000011
 36,-0.00004488,-0.00000808,0.00001231,0.00001041,0.00001316,0.00000250
 ,0.00000436,0.00004515,0.00002246,-0.00007543,-0.00013601,-0.00007604,
 -0.00001382,0.00002773,-0.00002282,-0.00008515,-0.00049931,0.00190680,
 0.00096406,0.00000454,-0.00000945,-0.00072583,-0.00031189,0.00024489,-
 0.00029601,0.00379485,0.00494996,0.02866212,0.00030486,-0.00452960,0.0
 0353372,0.00090473,0.00161571,0.00042580,-0.00020878,-0.00006631,-0.00
 057636,-0.00009703,-0.00010561,-0.00009140,0.00018513,0.00016904,-0.00
 032997,-0.00001710,0.00001071,-0.00001635,0.00001000,0.00000170,-0.000
 01332,-0.00000721,0.00000647,0.00000371,-0.00717996,-0.05803168,-0.053
 27398,-0.00331258,-0.00432355,-0.01676872,0.00718164,0.06254634,-0.000
 02227,-0.00001582,-0.00000633,0.00000306,-0.00000605,0.00000192,0.0000
 0155,0.00000345,0.00000384,-0.00000760,0.00000479,-0.00000339,0.000021
 42,0.00002994,0.00002938,0.00001152,-0.00002116,-0.00001479,-0.0000435
 1,-0.00004638,-0.00003440,-0.00000243,0.00000177,0.00000663,-0.0000308
 2,0.00003779,0.00003408,-0.00014790,0.00018876,0.00004822,0.00016736,-
 0.00002059,0.00011183,-0.00008383,-0.00002565,-0.00014070,0.00063093,-
 0.00115984,0.00063858,-0.00061590,0.00072667,0.00069765,0.00011240,0.0
 0005626,0.00042537,-0.00260281,-0.00328546,-0.01973628,0.00001736,0.00
 386536,-0.00058371,-0.00048386,-0.00098265,0.00056171,0.00074536,0.000
 69451,0.00044300,-0.00002507,0.00002482,-0.00003825,0.00005394,0.00012
 778,0.00046291,-0.00003796,0.00002558,-0.00003995,0.00001488,-0.000010
 48,-0.00001224,-0.00001011,0.00000438,0.00000667,-0.03048492,-0.052906
 10,-0.28299936,-0.00114520,-0.00209608,-0.00917433,0.03442545,0.055535
 82,0.31167781,0.00002380,0.00002104,0.00001659,-0.00000288,0.00000127,
 -0.00000272,-0.00000727,0.00000438,0.00000113,0.00000801,-0.00000617,0
 .00000207,0.00000121,-0.00009083,-0.00007782,0.00002575,0.00005172,0.0
 0002776,0.00019075,0.00022193,-0.00009482,-0.00007109,0.00008237,0.000
 00545,-0.00000294,0.00000445,0.00000685,-0.00099454,0.00046952,0.00020
 861,-0.00002675,-0.00004721,-0.00004605,-0.00080122,0.00135978,-0.0003
 7563,-0.00003366,-0.00022776,0.00043010,-0.00002900,0.00006771,0.00001
 726,0.00011831,-0.00015904,-0.00006715,0.00262636,0.00212893,0.0007582
 2,0.00034162,-0.00035516,0.00058330,0.00069477,-0.00000688,0.00061052,
 0.00001980,0.00017240,-0.00003513,0.00039353,0.00012149,-0.00022957,0.
 00011241,-0.00007888,-0.00020008,0.00001932,-0.00000890,0.00001156,-0.
 00000431,-0.00000529,0.00000775,0.00000138,-0.00000825,0.00000132,-0.2
 2668924,-0.11918876,-0.02301073,-0.02071681,-0.01368237,-0.00337500,-0
 .00273137,-0.00073464,-0.00045214,0.24755548,-0.00003729,-0.00002255,-
 0.00001290,0.00000533,0.00000315,-0.00000190,0.00000691,0.00000274,0.0
 0000494,-0.00001936,0.00000154,-0.00000260,0.00013077,0.00005183,0.000
 09120,0.00001345,-0.00008028,-0.00001194,0.00034392,0.00034250,-0.0003
 6367,-0.00021096,0.00018503,0.00003166,-0.00005481,0.00000879,0.000074
 83,-0.00014378,-0.00062045,0.00055645,0.00011955,-0.00003892,0.0000360
 9,0.00131921,0.00022716,-0.00047904,-0.00104361,0.00075024,-0.00048204
 ,0.00007463,-0.00006855,0.00003538,0.00003179,0.00018771,0.00009246,-0
 .02341658,-0.01392623,-0.00498962,0.00024694,0.00121076,0.00005948,0.0
 0205136,-0.00437626,0.00378574,0.00033807,0.00020773,-0.00006253,-0.00
 010012,0.00024887,0.00012973,-0.00166594,-0.00091037,0.00012816,0.0001
 1415,-0.00004244,0.00002961,0.00000871,0.00005557,-0.00004356,-0.00002
 947,0.00002381,0.00000013,-0.11755600,-0.12476866,-0.01498034,0.014916
 89,0.01061793,0.00268255,-0.00523395,-0.00432248,-0.00076857,0.1298944
 6,0.13504120,0.00000872,0.00000570,-0.00000963,-0.00000210,0.00000749,
 -0.00000128,0.00000055,-0.00000244,-0.00000019,0.,-0.00000247,0.000002
 79,-0.00002351,0.00001927,0.00000901,-0.00001724,0.00000846,0.00001311
 ,-0.00002514,0.00002666,-0.00013379,-0.00000387,0.00003092,0.00000165,
 0.00003243,-0.00005413,-0.00002338,-0.00024366,-0.00012854,0.00050355,
 -0.00008060,0.00012199,-0.00025659,0.00011489,0.00007971,0.00021401,-0
 .00012839,-0.00074905,0.00032224,-0.00010285,0.00000350,0.00000850,0.0
 0012197,-0.00005656,-0.00007752,0.01658917,0.00903215,0.00150291,0.000
 41018,-0.00074493,0.00050816,-0.00082938,0.00310608,-0.00182733,0.0001
 7864,0.00034072,0.00028336,-0.00036469,-0.00012084,-0.00005378,0.00087
 681,0.00094842,0.00039373,0.00008821,-0.00004299,0.00005281,-0.0000083
 0,0.00001370,0.00000335,-0.00000366,0.00000456,-0.00000797,-0.02346528
 ,-0.01575143,-0.05018074,0.00865116,0.00628088,0.00042502,-0.02705068,
 -0.01685467,-0.00240978,0.02528153,0.01450317,0.05080530,-0.00186303,-
 0.00114113,-0.00605774,0.00002297,0.00034126,0.00023814,0.00141781,-0.
 00143655,0.00033499,0.00131557,-0.00008453,0.00037763,-0.02361615,-0.0
 2208090,0.01766179,-0.02005617,-0.03053272,0.00267626,0.00264776,-0.00
 432616,-0.00133429,-0.00102157,-0.00079361,0.00000678,-0.00112666,-0.0
 0076754,-0.00002648,0.00071426,-0.00024985,-0.00001237,0.00003173,-0.0
 0006697,0.00007186,0.00008992,-0.00012598,-0.00011073,0.00003397,0.000
 15408,0.00011374,-0.00001270,-0.00000795,-0.00001171,-0.00005981,-0.00
 003971,-0.00001840,0.00008904,-0.00021222,-0.00012488,-0.00000503,0.00
 002551,0.00002408,-0.00005644,0.00012682,0.00003015,0.00001278,-0.0000
 1710,-0.00001648,-0.00010831,0.00001670,0.00001441,0.00002824,-0.00001
 231,-0.00000554,-0.14206966,-0.03129897,-0.02408041,-0.02674304,-0.023
 87076,-0.02368998,0.01306602,0.01028405,0.00975393,-0.00007906,0.00004
 335,0.00005991,-0.00010117,0.00004861,0.00000962,0.00003745,-0.0000082
 3,-0.00000577,0.00002503,-0.00010572,-0.00002048,0.28225723,0.00003613
 ,0.00153492,0.00256773,-0.00036107,0.00004475,-0.00008927,-0.00102704,
 0.00045077,-0.00012173,-0.00046967,-0.00001571,-0.00023154,-0.04477216
 ,-0.03698214,-0.01328045,-0.01682222,-0.00297625,0.01334491,0.00202574
 ,-0.00716234,0.00298679,-0.00219241,-0.00095293,-0.00023027,0.00011128
 ,-0.00003788,-0.00011081,0.00031331,0.00014503,-0.00043289,-0.00000306
 ,0.00002163,0.00010350,-0.00014754,0.00006199,0.00004373,-0.00002266,0
 .00022278,0.00024453,0.00001913,-0.00001101,-0.00000178,0.00007858,0.0
 0001433,-0.00003700,0.00001879,-0.00010855,-0.00009301,-0.00000277,0.0
 0001196,0.00001905,-0.00003613,0.00006990,0.00002230,0.00000712,-0.000
 00854,-0.00000681,-0.00005307,0.00000672,0.00000623,0.00001773,0.00000
 142,-0.00000795,-0.04523698,-0.07910054,-0.00967896,-0.00049053,0.0119
 8746,0.00275327,-0.00528511,-0.00695170,-0.00673850,-0.00006127,0.0000
 1947,0.00004478,-0.00004357,0.00003049,-0.00000658,0.00000992,-0.00000
 578,-0.00000801,0.00002167,-0.00003460,-0.00000582,0.11237657,0.160236
 14,0.00146638,0.00467757,0.01170927,0.00103018,-0.00100873,0.00030572,
 -0.00364704,0.00260138,-0.00054093,-0.00085831,0.00002790,-0.00036112,
 0.00399884,-0.02375929,-0.04103033,0.03507891,0.06257210,0.01240060,-0
 .00078558,0.00222242,0.00935908,-0.00047417,-0.00007740,-0.00007428,0.
 00384743,0.00259703,-0.00051641,-0.00204743,0.00203456,-0.00090278,-0.
 00016343,-0.00007242,0.00012636,0.00072208,-0.00101264,0.00052235,0.00
 026443,-0.00088331,0.00030011,0.00005053,0.00008589,-0.00004940,-0.000
 20154,-0.00014753,0.00003403,-0.00002760,0.00036566,0.00007906,0.00000
 963,-0.00003383,0.00000404,0.00009965,-0.00019853,-0.00002258,-0.00001
 200,0.00003066,0.00001674,0.00012986,-0.00000401,-0.00002476,-0.000050
 40,-0.00002336,0.00002190,-0.04347997,-0.02900285,-0.08201982,-0.01638
 668,-0.01149203,-0.01204664,-0.01930141,-0.02105254,-0.02145756,0.0001
 8792,0.00004350,-0.00007078,0.00006016,-0.00008532,0.00002324,0.000009
 17,0.00002338,0.00004712,-0.00005226,0.00002601,-0.00005432,-0.0262533
 5,0.04939590,0.25791615,0.00044985,0.00534444,0.01229764,0.00072904,-0
 .00110561,0.00001892,-0.00249091,0.00182524,-0.00096593,-0.00022970,0.
 00003611,-0.00027852,-0.00179630,-0.04569064,-0.06966311,0.00646765,0.
 06558829,0.03495184,-0.00008362,0.00117241,0.00841362,-0.00061127,-0.0
 0021051,-0.00001358,0.00241208,0.00178879,-0.00070828,-0.00191824,0.00
 161452,-0.00020929,-0.00025054,0.00022938,-0.00041128,0.00041176,-0.00
 062295,0.00071593,0.00039793,-0.00074472,0.00015982,-0.00002826,-0.000
 00942,-0.00010448,-0.00018000,-0.00012461,0.00002049,0.00000861,0.0002
 7655,0.00008788,0.00002271,-0.00001567,-0.00004214,0.00007783,-0.00013
 491,-0.00002221,-0.00001830,0.00001304,-0.00000343,0.00008417,0.000001
 57,-0.00001416,-0.00003460,-0.00002312,0.00002010,0.01980510,0.0020716
 2,0.00799709,0.00247693,0.00073850,-0.00045322,-0.00073033,-0.00571198
 ,-0.00210832,0.00019288,0.00006022,-0.00003457,0.00003667,-0.00005765,
 0.00001196,-0.00003208,-0.00001027,-0.00000313,-0.00004642,0.00000146,
 0.00001557,-0.08487098,0.00199128,0.06678599,0.05974833,-0.00060909,0.
 00596879,0.01003219,0.00066876,-0.00106748,0.00040041,-0.00175841,0.00
 124540,-0.00089188,-0.00006196,-0.00013792,-0.00020733,-0.00944490,-0.
 08023822,-0.10694467,0.03983783,0.07242821,0.04206274,0.00124255,0.002
 30617,0.00805521,-0.00044781,0.00000821,0.00008169,0.00144538,0.001427
 83,-0.00141446,-0.00190840,0.00104718,-0.00031421,-0.00075279,0.000276
 54,0.00030298,0.00028320,-0.00047932,0.00023783,-0.00004992,-0.0003013
 1,0.00044087,0.00018849,0.00005861,-0.00001518,-0.00005258,-0.00002641
 ,-0.00001255,-0.00005736,0.00018235,0.00004979,-0.00000714,-0.00001918
 ,0.00000078,0.00004686,-0.00009861,-0.00001976,-0.00000776,0.00001481,
 0.00001181,0.00007715,-0.00000800,-0.00001412,-0.00002485,-0.00000420,
 0.00000798,0.01208085,-0.00547298,-0.01443744,-0.00105216,0.00156733,-
 0.00027853,-0.00520261,-0.00452982,-0.00325696,0.00006589,-0.00000651,
 -0.00004774,0.00005312,-0.00004264,0.00000823,0.00000004,0.00001544,0.
 00002514,-0.00002297,0.00004524,-0.00001949,-0.00623802,-0.04051177,-0
 .03785017,-0.02829136,0.04635227,-0.00195197,-0.00428476,-0.00874953,-
 0.00028653,0.00049575,0.00007777,0.00313825,-0.00181782,0.00043049,0.0
 0142894,-0.00037373,0.00014269,0.00179700,0.00149670,0.02351644,-0.006
 36347,-0.03565706,-0.03857834,0.00133608,0.00004641,-0.00690038,0.0004
 7380,0.00015046,0.00013397,-0.00255831,-0.00142746,0.00014688,0.001046
 44,-0.00113202,-0.00016638,-0.00017689,0.00011034,0.00036539,-0.000381
 06,0.00024958,-0.00005844,-0.00015504,0.00058860,0.00013468,0.00006647
 ,0.00000434,0.00008021,0.00004913,0.00000653,-0.00001598,0.00001795,-0
 .00034167,-0.00018015,-0.00002233,0.00003712,0.00005494,-0.00009216,0.
 00018059,0.00004133,0.00002190,-0.00001896,-0.00000347,-0.00012915,0.0
 0001089,0.00001683,0.00003941,-0.00000152,-0.00001741,0.01212222,-0.02
 392126,-0.07058811,0.00232885,0.00231667,0.00449736,-0.00552921,-0.000
 26860,-0.00298216,-0.00013785,0.00000543,0.00006864,-0.00009555,0.0000
 6619,-0.00000529,0.00002989,-0.00000736,-0.00000320,0.00004910,-0.0000
 6887,-0.00001321,0.05039532,-0.04045134,-0.13369410,-0.05646122,0.1040
 0683,0.23224849\\0.00000028,-0.00000018,-0.00000270,0.00000134,0.00000
 194,-0.00000056,-0.00000053,-0.00000111,-0.00000111,0.00000066,0.00000
 087,-0.00000395,-0.00000073,0.00000060,-0.00000068,0.00000106,-0.00000
 130,-0.00000611,-0.00000031,-0.00000009,0.00000101,0.00000021,0.000000
 70,0.00000181,-0.00000163,-0.00000171,0.00000054,0.00000067,0.00000007
 ,-0.00000002,0.00000220,0.00000294,-0.00000092,-0.00000116,-0.00000107
 ,-0.00000206,-0.00000013,-0.00000031,0.00000352,-0.00000191,-0.0000023
 2,0.00000375,0.00000111,0.00000119,0.00000524,0.00000147,0.00000129,0.
 00000288,0.00000189,0.00000281,0.00000244,0.00000057,0.00000090,0.0000
 0628,-0.00000109,-0.00000148,0.00000725,0.00000085,0.00000129,0.000006
 55,0.00000122,0.00000154,0.00000806,-0.00000162,-0.00000277,-0.0000063
 9,-0.00000143,-0.00000251,-0.00000568,-0.00000243,-0.00000286,-0.00000
 603,-0.00000068,-0.00000074,0.00000074,-0.00000029,-0.00000010,0.00000
 056,-0.00000222,-0.00000295,0.00000114,-0.00000040,-0.00000075,-0.0000
 0153,-0.00000057,-0.00000088,-0.00000540,0.00000360,0.00000698,-0.0000
 0862\\\@


 KEEP CLOSE TO NATURES HEART, YOURSELF;
 AND BREAK CLEAR AWAY, ONCE IN A WHILE, AND
 CLIMB A MOUNTAIN OR SPEND A WEEK IN THE
 WOODS.  WASH YOUR SPIRIT CLEAN...
                                         -- JOHN MUIR
 Job cpu time:  0 days  4 hours 54 minutes 31.4 seconds.
 File lengths (MBytes):  RWF=    713 Int=      0 D2E=      0 Chk=     14 Scr=      1
 Normal termination of Gaussian 09 at Sat Feb 15 20:16:29 2014.
