 Entering Gaussian System, Link 0=g09
 Initial command:
 /usr/caen/gaussian-09revc/g09/l1.exe /scratch/avioli_flux/hetanjin/scratch/Gau-93610.inp -scrdir=/scratch/avioli_flux/hetanjin/scratch/
 Entering Link 1 = /usr/caen/gaussian-09revc/g09/l1.exe PID=     93611.
  
 Copyright (c) 1988,1990,1992,1993,1995,1998,2003,2009,2011,
            Gaussian, Inc.  All Rights Reserved.
  
 This is part of the Gaussian(R) 09 program.  It is based on
 the Gaussian(R) 03 system (copyright 2003, Gaussian, Inc.),
 the Gaussian(R) 98 system (copyright 1998, Gaussian, Inc.),
 the Gaussian(R) 94 system (copyright 1995, Gaussian, Inc.),
 the Gaussian 92(TM) system (copyright 1992, Gaussian, Inc.),
 the Gaussian 90(TM) system (copyright 1990, Gaussian, Inc.),
 the Gaussian 88(TM) system (copyright 1988, Gaussian, Inc.),
 the Gaussian 86(TM) system (copyright 1986, Carnegie Mellon
 University), and the Gaussian 82(TM) system (copyright 1983,
 Carnegie Mellon University). Gaussian is a federally registered
 trademark of Gaussian, Inc.
  
 This software contains proprietary and confidential information,
 including trade secrets, belonging to Gaussian, Inc.
  
 This software is provided under written license and may be
 used, copied, transmitted, or stored only in accord with that
 written license.
  
 The following legend is applicable only to US Government
 contracts under FAR:
  
                    RESTRICTED RIGHTS LEGEND
  
 Use, reproduction and disclosure by the US Government is
 subject to restrictions as set forth in subparagraphs (a)
 and (c) of the Commercial Computer Software - Restricted
 Rights clause in FAR 52.227-19.
  
 Gaussian, Inc.
 340 Quinnipiac St., Bldg. 40, Wallingford CT 06492
  
  
 ---------------------------------------------------------------
 Warning -- This program may not be used in any manner that
 competes with the business of Gaussian, Inc. or will provide
 assistance to any competitor of Gaussian, Inc.  The licensee
 of this program is prohibited from giving any competitor of
 Gaussian, Inc. access to this program.  By using this program,
 the user acknowledges that Gaussian, Inc. is engaged in the
 business of creating and licensing software in the field of
 computational chemistry and represents and warrants to the
 licensee that it is not a competitor of Gaussian, Inc. and that
 it will not use this program in any manner prohibited above.
 ---------------------------------------------------------------
  

 Cite this work as:
 Gaussian 09, Revision C.01,
 M. J. Frisch, G. W. Trucks, H. B. Schlegel, G. E. Scuseria, 
 M. A. Robb, J. R. Cheeseman, G. Scalmani, V. Barone, B. Mennucci, 
 G. A. Petersson, H. Nakatsuji, M. Caricato, X. Li, H. P. Hratchian, 
 A. F. Izmaylov, J. Bloino, G. Zheng, J. L. Sonnenberg, M. Hada, 
 M. Ehara, K. Toyota, R. Fukuda, J. Hasegawa, M. Ishida, T. Nakajima, 
 Y. Honda, O. Kitao, H. Nakai, T. Vreven, J. A. Montgomery, Jr., 
 J. E. Peralta, F. Ogliaro, M. Bearpark, J. J. Heyd, E. Brothers, 
 K. N. Kudin, V. N. Staroverov, T. Keith, R. Kobayashi, J. Normand, 
 K. Raghavachari, A. Rendell, J. C. Burant, S. S. Iyengar, J. Tomasi, 
 M. Cossi, N. Rega, J. M. Millam, M. Klene, J. E. Knox, J. B. Cross, 
 V. Bakken, C. Adamo, J. Jaramillo, R. Gomperts, R. E. Stratmann, 
 O. Yazyev, A. J. Austin, R. Cammi, C. Pomelli, J. W. Ochterski, 
 R. L. Martin, K. Morokuma, V. G. Zakrzewski, G. A. Voth, 
 P. Salvador, J. J. Dannenberg, S. Dapprich, A. D. Daniels, 
 O. Farkas, J. B. Foresman, J. V. Ortiz, J. Cioslowski, 
 and D. J. Fox, Gaussian, Inc., Wallingford CT, 2010.
 
 ******************************************
 Gaussian 09:  EM64L-G09RevC.01 23-Sep-2011
                13-Feb-2014 
 ******************************************
 %mem=30GB
 %nprocshared=8
 Will use up to    8 processors via shared memory.
 %chk=TS_1_1d.chk
 ----------------------------
 #p freq ub3lyp/6-311++g(d,p)
 ----------------------------
 1/10=4,30=1,38=1/1,3;
 2/12=2,17=6,18=5,40=1/2;
 3/5=4,6=6,7=1111,11=2,16=1,25=1,30=1,71=2,74=-5,116=2/1,2,3;
 4//1;
 5/5=2,38=5,98=1/2;
 8/6=4,10=90,11=11/1;
 11/6=1,8=1,9=11,15=111,16=1/1,2,10;
 10/6=1/2;
 6/7=2,8=2,9=2,10=2,18=1,28=1/1;
 7/8=1,10=1,25=1/1,2,3,16;
 1/10=4,30=1/3;
 99//99;
 Leave Link    1 at Thu Feb 13 01:34:08 2014, MaxMem= 4026531840 cpu:       0.7
 (Enter /usr/caen/gaussian-09revc/g09/l101.exe)
 --------------------------------------------------------
 TS_1_1d using B3LYP/6-311++g(d,p) to find TS | reactants
 --------------------------------------------------------
 Charge =  0 Multiplicity = 2
 Symbolic Z-Matrix:
 C                    -3.20096  -1.59673  -0.14602 
 H                    -2.8582   -2.62128  -0.31245 
 H                    -3.47623  -1.16875  -1.11305 
 H                    -4.10278  -1.64057   0.47138 
 C                    -2.10821  -0.75679   0.52787 
 H                    -1.87395  -1.18851   1.51282 
 C                    -0.83055  -0.70113  -0.29496 
 H                    -0.81291  -1.37911  -1.15103 
 H                    -1.03061   0.51856  -0.88514 
 C                     0.49038  -0.57572   0.4291 
 H                     0.67134  -1.50961   0.98671 
 H                     0.4156    0.21327   1.18562 
 C                     1.68028  -0.31175  -0.50386 
 H                     1.53613   0.65137  -1.01008 
 H                     1.67845  -1.07442  -1.29258 
 C                     3.06047  -0.31771   0.17991 
 H                     3.16277  -1.27304   0.71379 
 C                     4.17765  -0.24804  -0.87082 
 H                     4.11984   0.68581  -1.44072 
 H                     5.16533  -0.28951  -0.40236 
 H                     4.10951  -1.07637  -1.58242 
 C                    -2.61275   0.68459   0.81564 
 H                    -3.60302   0.67256   1.27762 
 H                    -1.91235   1.23093   1.45552 
 C                     3.21338   0.81525   1.20521 
 H                     4.20542   0.79239   1.66554 
 H                     3.09236   1.79239   0.72475 
 H                     2.47764   0.74613   2.0103 
 O                    -2.78125   1.38442  -0.41001 
 O                    -1.49155   1.61133  -0.94833 
 
 NAtoms=     30 NQM=        0 NQMF=       0 NMMI=     30 NMMIF=      0
                NMic=       0 NMicF=      0.
                    Isotopes and Nuclear Properties:
 (Nuclear quadrupole moments (NQMom) in fm**2, nuclear magnetic moments (NMagM)
  in nuclear magnetons)

  Atom         1           2           3           4           5           6           7           8           9          10
 IAtWgt=          12           1           1           1          12           1          12           1           1          12
 AtmWgt=  12.0000000   1.0078250   1.0078250   1.0078250  12.0000000   1.0078250  12.0000000   1.0078250   1.0078250  12.0000000
 NucSpn=           0           1           1           1           0           1           0           1           1           0
 AtZEff=   0.0000000   0.0000000   0.0000000   0.0000000   0.0000000   0.0000000   0.0000000   0.0000000   0.0000000   0.0000000
 NQMom=    0.0000000   0.0000000   0.0000000   0.0000000   0.0000000   0.0000000   0.0000000   0.0000000   0.0000000   0.0000000
 NMagM=    0.0000000   2.7928460   2.7928460   2.7928460   0.0000000   2.7928460   0.0000000   2.7928460   2.7928460   0.0000000

  Atom        11          12          13          14          15          16          17          18          19          20
 IAtWgt=           1           1          12           1           1          12           1          12           1           1
 AtmWgt=   1.0078250   1.0078250  12.0000000   1.0078250   1.0078250  12.0000000   1.0078250  12.0000000   1.0078250   1.0078250
 NucSpn=           1           1           0           1           1           0           1           0           1           1
 AtZEff=   0.0000000   0.0000000   0.0000000   0.0000000   0.0000000   0.0000000   0.0000000   0.0000000   0.0000000   0.0000000
 NQMom=    0.0000000   0.0000000   0.0000000   0.0000000   0.0000000   0.0000000   0.0000000   0.0000000   0.0000000   0.0000000
 NMagM=    2.7928460   2.7928460   0.0000000   2.7928460   2.7928460   0.0000000   2.7928460   0.0000000   2.7928460   2.7928460

  Atom        21          22          23          24          25          26          27          28          29          30
 IAtWgt=           1          12           1           1          12           1           1           1          16          16
 AtmWgt=   1.0078250  12.0000000   1.0078250   1.0078250  12.0000000   1.0078250   1.0078250   1.0078250  15.9949146  15.9949146
 NucSpn=           1           0           1           1           0           1           1           1           0           0
 AtZEff=   0.0000000   0.0000000   0.0000000   0.0000000   0.0000000   0.0000000   0.0000000   0.0000000   0.0000000   0.0000000
 NQMom=    0.0000000   0.0000000   0.0000000   0.0000000   0.0000000   0.0000000   0.0000000   0.0000000   0.0000000   0.0000000
 NMagM=    2.7928460   0.0000000   2.7928460   2.7928460   0.0000000   2.7928460   2.7928460   2.7928460   0.0000000   0.0000000
 Leave Link  101 at Thu Feb 13 01:34:08 2014, MaxMem= 4026531840 cpu:       0.7
 (Enter /usr/caen/gaussian-09revc/g09/l103.exe)

 GradGradGradGradGradGradGradGradGradGradGradGradGradGradGradGradGradGrad
 Berny optimization.
 Initialization pass.
 Trust Radius=3.00D-01 FncErr=1.00D-07 GrdErr=1.00D-07
 Number of steps in this run=      2 maximum allowed number of steps=      2.
 GradGradGradGradGradGradGradGradGradGradGradGradGradGradGradGradGradGrad

 Leave Link  103 at Thu Feb 13 01:34:08 2014, MaxMem= 4026531840 cpu:       0.2
 (Enter /usr/caen/gaussian-09revc/g09/l202.exe)
                          Input orientation:                          
 ---------------------------------------------------------------------
 Center     Atomic      Atomic             Coordinates (Angstroms)
 Number     Number       Type             X           Y           Z
 ---------------------------------------------------------------------
      1          6           0       -3.200963   -1.596732   -0.146023
      2          1           0       -2.858204   -2.621280   -0.312449
      3          1           0       -3.476229   -1.168750   -1.113047
      4          1           0       -4.102776   -1.640572    0.471381
      5          6           0       -2.108207   -0.756792    0.527870
      6          1           0       -1.873947   -1.188508    1.512820
      7          6           0       -0.830553   -0.701131   -0.294959
      8          1           0       -0.812905   -1.379109   -1.151030
      9          1           0       -1.030613    0.518555   -0.885142
     10          6           0        0.490375   -0.575715    0.429101
     11          1           0        0.671341   -1.509610    0.986705
     12          1           0        0.415602    0.213269    1.185621
     13          6           0        1.680275   -0.311751   -0.503855
     14          1           0        1.536126    0.651367   -1.010077
     15          1           0        1.678446   -1.074422   -1.292575
     16          6           0        3.060468   -0.317705    0.179906
     17          1           0        3.162766   -1.273037    0.713793
     18          6           0        4.177655   -0.248042   -0.870823
     19          1           0        4.119840    0.685811   -1.440721
     20          1           0        5.165326   -0.289505   -0.402357
     21          1           0        4.109508   -1.076369   -1.582418
     22          6           0       -2.612750    0.684589    0.815644
     23          1           0       -3.603022    0.672561    1.277617
     24          1           0       -1.912345    1.230929    1.455515
     25          6           0        3.213379    0.815248    1.205211
     26          1           0        4.205417    0.792387    1.665542
     27          1           0        3.092358    1.792392    0.724749
     28          1           0        2.477640    0.746130    2.010295
     29          8           0       -2.781250    1.384417   -0.410006
     30          8           0       -1.491550    1.611326   -0.948326
 ---------------------------------------------------------------------
                    Distance matrix (angstroms):
                    1          2          3          4          5
     1  C    0.000000
     2  H    1.093106   0.000000
     3  H    1.092738   1.769959   0.000000
     4  H    1.093790   1.767806   1.767934   0.000000
     5  C    1.534193   2.178290   2.175730   2.182330   0.000000
     6  H    2.163187   2.520556   3.076179   2.501327   1.100628
     7  C    2.538331   2.792606   2.808476   3.489594   1.520706
     8  H    2.600042   2.535637   2.671889   3.677476   2.209930
     9  H    3.119480   3.677857   2.979929   3.992514   2.187309
    10  C    3.872883   3.993396   4.296959   4.715161   2.606755
    11  H    4.035517   3.921900   4.661275   4.803634   2.916016
    12  H    4.257807   4.582214   4.726542   4.935849   2.782673
    13  C    5.060208   5.095915   5.262613   6.013363   3.951596
    14  H    5.314184   5.523318   5.333585   6.264576   4.198733
    15  H    5.039447   4.892301   5.158663   6.070798   4.213508
    16  C    6.399036   6.370208   6.717471   7.290199   5.198950
    17  H    6.429705   6.254839   6.886543   7.278870   5.299456
    18  C    7.535801   7.446298   7.712867   8.503305   6.459662
    19  H    7.776915   7.804034   7.826048   8.756689   6.689172
    20  H    8.471679   8.355973   8.715195   9.406727   7.347650
    21  H    7.468400   7.249040   7.600806   8.483986   6.573844
    22  C    2.544646   3.501658   2.810749   2.782996   1.554013
    23  H    2.708891   3.732620   3.020228   2.500071   2.199919
    24  H    3.495873   4.342794   3.847298   3.743264   2.202254
    25  C    6.984788   7.139827   7.352647   7.752140   5.590114
    26  H    7.990252   8.090755   8.400851   8.739072   6.599705
    27  H    7.200715   7.481007   7.435872   7.976176   5.795082
    28  H    6.510395   6.723527   6.990750   7.167041   5.048401
    29  O    3.022101   4.007624   2.737869   3.416699   2.432565
    30  O    3.722555   4.492999   3.419782   4.405554   2.857867
                    6          7          8          9         10
     6  H    0.000000
     7  C    2.143425   0.000000
     8  H    2.873715   1.092164   0.000000
     9  H    3.061944   1.369662   1.928528   0.000000
    10  C    2.672074   1.511570   2.200181   2.288682   0.000000
    11  H    2.618854   2.133538   2.605749   3.242516   1.102647
    12  H    2.704454   2.140361   3.082991   2.544169   1.095632
    13  C    4.179495   2.549414   2.788196   2.860717   1.534909
    14  H    4.623716   2.818122   3.108158   2.573208   2.161148
    15  H    4.527997   2.725740   2.513901   3.169003   2.150439
    16  C    5.184921   3.938598   4.230956   4.309362   2.595004
    17  H    5.100399   4.158275   4.392582   4.832269   2.776505
    18  C    6.571767   5.061527   5.124794   5.264402   3.923418
    19  H    6.939882   5.267141   5.355351   5.183031   4.273254
    20  H    7.350338   6.010951   6.122662   6.267033   4.756932
    21  H    6.737567   5.118843   4.950545   5.426861   4.170730
    22  C    2.130816   2.515926   3.371364   2.328819   3.371523
    23  H    2.551196   3.470823   4.229944   3.364303   4.362805
    24  H    2.420420   2.822639   3.849044   2.600693   3.176563
    25  C    5.476363   4.572013   5.155389   4.740155   3.154659
    26  H    6.395775   5.606706   6.150775   5.830693   4.147533
    27  H    5.845597   4.758854   5.369175   4.605790   3.530673
    28  H    4.788174   4.284029   5.033717   4.554469   2.862983
    29  O    3.337724   2.857965   3.472834   2.010025   3.905093
    30  O    3.747337   2.492241   3.073166   1.187688   3.257066
                   11         12         13         14         15
    11  H    0.000000
    12  H    1.753078   0.000000
    13  C    2.162078   2.174712   0.000000
    14  H    3.066727   2.503716   1.097559   0.000000
    15  H    2.529578   3.065025   1.097155   1.754539   0.000000
    16  C    2.789174   2.879012   1.540291   2.163048   2.156573
    17  H    2.517468   3.158898   2.145814   3.053034   2.503631
    18  C    4.163676   4.312170   2.525001   2.793923   2.665863
    19  H    4.754410   4.565342   2.797200   2.619584   3.013432
    20  H    4.859429   5.033322   3.486600   3.798112   3.683329
    21  H    4.313825   4.792718   2.765703   3.151974   2.448280
    22  C    3.953356   3.087060   4.600417   4.532939   5.094416
    23  H    4.807981   4.045831   5.661779   5.625374   6.127948
    24  H    3.795493   2.554958   4.373318   4.278667   5.075473
    25  C    3.451763   2.861873   2.557624   2.783440   3.487952
    26  H    4.271967   3.863729   3.507385   3.782055   4.315207
    27  H    4.102824   3.141824   2.816179   2.594883   3.779863
    28  H    3.065749   2.283863   2.841805   3.165134   3.855136
    29  O    4.716628   3.759983   4.773992   4.420089   5.168530
    30  O    4.261770   3.185204   3.735807   3.176815   4.169008
                   16         17         18         19         20
    16  C    0.000000
    17  H    1.099163   0.000000
    18  C    1.535250   2.142807   0.000000
    19  H    2.180767   3.065128   1.095540   0.000000
    20  H    2.184091   2.494669   1.093926   1.767055   0.000000
    21  H    2.186742   2.491502   1.094138   1.767898   1.768177
    22  C    5.796047   6.099119   7.058581   7.100630   7.932897
    23  H    6.825518   7.062516   8.124176   8.187315   8.979522
    24  H    5.362305   5.707604   6.684856   6.713612   7.473743
    25  C    1.535648   2.145923   2.523951   2.799890   2.759502
    26  H    2.179524   2.501784   2.741607   3.109269   2.523514
    27  H    2.179537   3.066257   2.808396   2.639981   3.146722
    28  H    2.195850   2.495466   3.489881   3.822299   3.757271
    29  O    6.113173   6.607292   7.162655   7.012522   8.120969
    30  O    5.070990   5.722311   5.966837   5.708479   6.944439
                   21         22         23         24         25
    21  H    0.000000
    22  C    7.351219   0.000000
    23  H    8.409618   1.092796   0.000000
    24  H    7.128490   1.094755   1.789361   0.000000
    25  C    3.485992   5.840600   6.818279   5.148640   0.000000
    26  H    3.748425   6.871779   7.818987   6.137055   1.093877
    27  H    3.819346   5.812379   6.810859   5.088842   1.095582
    28  H    4.346502   5.229058   6.125086   4.451379   1.092817
    29  O    7.410301   1.421397   2.007516   2.063667   6.234457
    30  O    6.244808   2.286377   3.208491   2.469863   5.235248
                   26         27         28         29         30
    26  H    0.000000
    27  H    1.767485   0.000000
    28  H    1.762444   1.767815   0.000000
    29  O    7.312449   5.996114   5.824190   0.000000
    30  O    6.321266   4.883050   5.025582   1.415840   0.000000
 Stoichiometry    C9H19O2(2)
 Framework group  C1[X(C9H19O2)]
 Deg. of freedom    84
 Full point group                 C1      NOp   1
 Largest Abelian subgroup         C1      NOp   1
 Largest concise Abelian subgroup C1      NOp   1
                         Standard orientation:                         
 ---------------------------------------------------------------------
 Center     Atomic      Atomic             Coordinates (Angstroms)
 Number     Number       Type             X           Y           Z
 ---------------------------------------------------------------------
      1          6           0       -3.200963   -1.596732   -0.146023
      2          1           0       -2.858204   -2.621280   -0.312449
      3          1           0       -3.476229   -1.168750   -1.113047
      4          1           0       -4.102776   -1.640572    0.471381
      5          6           0       -2.108207   -0.756792    0.527870
      6          1           0       -1.873947   -1.188508    1.512820
      7          6           0       -0.830553   -0.701131   -0.294959
      8          1           0       -0.812905   -1.379109   -1.151030
      9          1           0       -1.030613    0.518555   -0.885142
     10          6           0        0.490375   -0.575715    0.429101
     11          1           0        0.671341   -1.509610    0.986705
     12          1           0        0.415602    0.213269    1.185621
     13          6           0        1.680275   -0.311751   -0.503855
     14          1           0        1.536126    0.651367   -1.010077
     15          1           0        1.678446   -1.074422   -1.292575
     16          6           0        3.060468   -0.317705    0.179906
     17          1           0        3.162766   -1.273037    0.713793
     18          6           0        4.177655   -0.248042   -0.870823
     19          1           0        4.119840    0.685811   -1.440721
     20          1           0        5.165326   -0.289505   -0.402357
     21          1           0        4.109508   -1.076369   -1.582418
     22          6           0       -2.612750    0.684589    0.815644
     23          1           0       -3.603022    0.672561    1.277617
     24          1           0       -1.912345    1.230929    1.455515
     25          6           0        3.213379    0.815248    1.205211
     26          1           0        4.205417    0.792387    1.665542
     27          1           0        3.092358    1.792392    0.724749
     28          1           0        2.477640    0.746130    2.010295
     29          8           0       -2.781250    1.384417   -0.410006
     30          8           0       -1.491550    1.611326   -0.948326
 ---------------------------------------------------------------------
 Rotational constants (GHZ):      1.9944411      0.4331529      0.4067287
 Leave Link  202 at Thu Feb 13 01:34:08 2014, MaxMem= 4026531840 cpu:       0.5
 (Enter /usr/caen/gaussian-09revc/g09/l301.exe)
 Standard basis: 6-311++G(d,p) (5D, 7F)
 Ernie: Thresh=  0.10000D-02 Tol=  0.10000D-05 Strict=F.
 There are   375 symmetry adapted basis functions of A   symmetry.
 Integral buffers will be    131072 words long.
 Raffenetti 2 integral format.
 Two-electron integral symmetry is turned on.
   375 basis functions,   567 primitive gaussians,   386 cartesian basis functions
    45 alpha electrons       44 beta electrons
       nuclear repulsion energy       658.4041183582 Hartrees.
 IExCor=  402 DFT=T Ex+Corr=B3LYP ExCW=0 ScaHFX=  0.200000
 ScaDFX=  0.800000  0.720000  1.000000  0.810000 ScalE2=  1.000000  1.000000
 IRadAn=      0 IRanWt=     -1 IRanGd=            0 ICorTp=0
 NAtoms=   30 NActive=   30 NUniq=   30 SFac= 1.00D+00 NAtFMM=   60 NAOKFM=F Big=F
 Leave Link  301 at Thu Feb 13 01:34:09 2014, MaxMem= 4026531840 cpu:       1.0
 (Enter /usr/caen/gaussian-09revc/g09/l302.exe)
 NPDir=0 NMtPBC=     1 NCelOv=     1 NCel=       1 NClECP=     1 NCelD=      1
         NCelK=      1 NCelE2=     1 NClLst=     1 CellRange=     0.0.
 One-electron integrals computed using PRISM.
 NBasis=   375 RedAO= T  NBF=   375
 NBsUse=   375 1.00D-06 NBFU=   375
 Precomputing XC quadrature grid using
 IXCGrd= 2 IRadAn=           0 IRanWt=          -1 IRanGd=           0 AccXCQ= 0.00D+00.
 NRdTot=    1960 NPtTot=      249976 NUsed=      264099 NTot=      264131
 NSgBfM=   386   386   386   386   386 NAtAll=    30    30.
 Leave Link  302 at Thu Feb 13 01:34:11 2014, MaxMem= 4026531840 cpu:       8.6
 (Enter /usr/caen/gaussian-09revc/g09/l303.exe)
 DipDrv:  MaxL=1.
 Leave Link  303 at Thu Feb 13 01:34:11 2014, MaxMem= 4026531840 cpu:       2.2
 (Enter /usr/caen/gaussian-09revc/g09/l401.exe)
 Harris functional with IExCor=  402 diagonalized for initial guess.
 ExpMin= 3.60D-02 ExpMax= 8.59D+03 ExpMxC= 1.30D+03 IAcc=3 IRadAn=         5 AccDes= 0.00D+00
 HarFok:  IExCor=  402 AccDes= 0.00D+00 IRadAn=         5 IDoV= 1
 ScaDFX=  1.000000  1.000000  1.000000  1.000000
 FoFCou: FMM=F IPFlag=           0 FMFlag=      100000 FMFlg1=           0
         NFxFlg=           0 DoJE=T BraDBF=F KetDBF=T FulRan=T
         Omega=  0.000000  0.000000  1.000000  0.000000  0.000000 ICntrl=     500 IOpCl=  0
         NMat0=    1 NMatS0=    1 NMatT0=    0 NMatD0=    1 NMtDS0=    0 NMtDT0=    0
         I1Cent=           4 NGrid=           0.
 Petite list used in FoFCou.
 Harris En= -504.893894876451    
 Initial guess orbital symmetries:
 Alpha Orbitals:
       Occupied  (A) (A) (A) (A) (A) (A) (A) (A) (A) (A) (A) (A)
                 (A) (A) (A) (A) (A) (A) (A) (A) (A) (A) (A) (A)
                 (A) (A) (A) (A) (A) (A) (A) (A) (A) (A) (A) (A)
                 (A) (A) (A) (A) (A) (A) (A) (A) (A)
       Virtual   (A) (A) (A) (A) (A) (A) (A) (A) (A) (A) (A) (A)
                 (A) (A) (A) (A) (A) (A) (A) (A) (A) (A) (A) (A)
                 (A) (A) (A) (A) (A) (A) (A) (A) (A) (A) (A) (A)
                 (A) (A) (A) (A) (A) (A) (A) (A) (A) (A) (A) (A)
                 (A) (A) (A) (A) (A) (A) (A) (A) (A) (A) (A) (A)
                 (A) (A) (A) (A) (A) (A) (A) (A) (A) (A) (A) (A)
                 (A) (A) (A) (A) (A) (A) (A) (A) (A) (A) (A) (A)
                 (A) (A) (A) (A) (A) (A) (A) (A) (A) (A) (A) (A)
                 (A) (A) (A) (A) (A) (A) (A) (A) (A) (A) (A) (A)
                 (A) (A) (A) (A) (A) (A) (A) (A) (A) (A) (A) (A)
                 (A) (A) (A) (A) (A) (A) (A) (A) (A) (A) (A) (A)
                 (A) (A) (A) (A) (A) (A) (A) (A) (A) (A) (A) (A)
                 (A) (A) (A) (A) (A) (A) (A) (A) (A) (A) (A) (A)
                 (A) (A) (A) (A) (A) (A) (A) (A) (A) (A) (A) (A)
                 (A) (A) (A) (A) (A) (A) (A) (A) (A) (A) (A) (A)
                 (A) (A) (A) (A) (A) (A) (A) (A) (A) (A) (A) (A)
                 (A) (A) (A) (A) (A) (A) (A) (A) (A) (A) (A) (A)
                 (A) (A) (A) (A) (A) (A) (A) (A) (A) (A) (A) (A)
                 (A) (A) (A) (A) (A) (A) (A) (A) (A) (A) (A) (A)
                 (A) (A) (A) (A) (A) (A) (A) (A) (A) (A) (A) (A)
                 (A) (A) (A) (A) (A) (A) (A) (A) (A) (A) (A) (A)
                 (A) (A) (A) (A) (A) (A) (A) (A) (A) (A) (A) (A)
                 (A) (A) (A) (A) (A) (A) (A) (A) (A) (A) (A) (A)
                 (A) (A) (A) (A) (A) (A) (A) (A) (A) (A) (A) (A)
                 (A) (A) (A) (A) (A) (A) (A) (A) (A) (A) (A) (A)
                 (A) (A) (A) (A) (A) (A) (A) (A) (A) (A) (A) (A)
                 (A) (A) (A) (A) (A) (A) (A) (A) (A) (A) (A) (A)
                 (A) (A) (A) (A) (A) (A)
 Beta  Orbitals:
       Occupied  (A) (A) (A) (A) (A) (A) (A) (A) (A) (A) (A) (A)
                 (A) (A) (A) (A) (A) (A) (A) (A) (A) (A) (A) (A)
                 (A) (A) (A) (A) (A) (A) (A) (A) (A) (A) (A) (A)
                 (A) (A) (A) (A) (A) (A) (A) (A)
       Virtual   (A) (A) (A) (A) (A) (A) (A) (A) (A) (A) (A) (A)
                 (A) (A) (A) (A) (A) (A) (A) (A) (A) (A) (A) (A)
                 (A) (A) (A) (A) (A) (A) (A) (A) (A) (A) (A) (A)
                 (A) (A) (A) (A) (A) (A) (A) (A) (A) (A) (A) (A)
                 (A) (A) (A) (A) (A) (A) (A) (A) (A) (A) (A) (A)
                 (A) (A) (A) (A) (A) (A) (A) (A) (A) (A) (A) (A)
                 (A) (A) (A) (A) (A) (A) (A) (A) (A) (A) (A) (A)
                 (A) (A) (A) (A) (A) (A) (A) (A) (A) (A) (A) (A)
                 (A) (A) (A) (A) (A) (A) (A) (A) (A) (A) (A) (A)
                 (A) (A) (A) (A) (A) (A) (A) (A) (A) (A) (A) (A)
                 (A) (A) (A) (A) (A) (A) (A) (A) (A) (A) (A) (A)
                 (A) (A) (A) (A) (A) (A) (A) (A) (A) (A) (A) (A)
                 (A) (A) (A) (A) (A) (A) (A) (A) (A) (A) (A) (A)
                 (A) (A) (A) (A) (A) (A) (A) (A) (A) (A) (A) (A)
                 (A) (A) (A) (A) (A) (A) (A) (A) (A) (A) (A) (A)
                 (A) (A) (A) (A) (A) (A) (A) (A) (A) (A) (A) (A)
                 (A) (A) (A) (A) (A) (A) (A) (A) (A) (A) (A) (A)
                 (A) (A) (A) (A) (A) (A) (A) (A) (A) (A) (A) (A)
                 (A) (A) (A) (A) (A) (A) (A) (A) (A) (A) (A) (A)
                 (A) (A) (A) (A) (A) (A) (A) (A) (A) (A) (A) (A)
                 (A) (A) (A) (A) (A) (A) (A) (A) (A) (A) (A) (A)
                 (A) (A) (A) (A) (A) (A) (A) (A) (A) (A) (A) (A)
                 (A) (A) (A) (A) (A) (A) (A) (A) (A) (A) (A) (A)
                 (A) (A) (A) (A) (A) (A) (A) (A) (A) (A) (A) (A)
                 (A) (A) (A) (A) (A) (A) (A) (A) (A) (A) (A) (A)
                 (A) (A) (A) (A) (A) (A) (A) (A) (A) (A) (A) (A)
                 (A) (A) (A) (A) (A) (A) (A) (A) (A) (A) (A) (A)
                 (A) (A) (A) (A) (A) (A) (A)
 The electronic state of the initial guess is 2-A.
 Initial guess <Sx>= 0.0000 <Sy>= 0.0000 <Sz>= 0.5000 <S**2>= 0.7500 S= 0.5000
 Leave Link  401 at Thu Feb 13 01:34:15 2014, MaxMem= 4026531840 cpu:      28.7
 (Enter /usr/caen/gaussian-09revc/g09/l502.exe)
 UHF open shell SCF:
 Requested convergence on RMS density matrix=1.00D-08 within 128 cycles.
 Requested convergence on MAX density matrix=1.00D-06.
 Requested convergence on             energy=1.00D-06.
 No special actions if energy rises.
 Using DIIS extrapolation, IDIIS=  1040.
 Integral symmetry usage will be decided dynamically.
       263816 words used for storage of precomputed grid.
 IEnd=      734950 IEndB=      734950 NGot=  4026531840 MDV=  4025962913
 LenX=  4025962913 LenY=  4025813476
 Fock matrices will be formed incrementally for  20 cycles.

 Cycle   1  Pass 1  IDiag  1:
 FoFCou: FMM=F IPFlag=           0 FMFlag=      100000 FMFlg1=           0
         NFxFlg=           0 DoJE=F BraDBF=F KetDBF=F FulRan=T
         Omega=  0.000000  0.000000  1.000000  0.000000  0.000000 ICntrl=       0 IOpCl=  1
         NMat0=    1 NMatS0=    1 NMatT0=    0 NMatD0=    1 NMtDS0=    0 NMtDT0=    0
         I1Cent=           0 NGrid=           0.
 Symmetry not used in FoFCou.
 E= -504.467858156895    
 DIIS: error= 3.71D-02 at cycle   1 NSaved=   1.
 NSaved= 1 IEnMin= 1 EnMin= -504.467858156895     IErMin= 1 ErrMin= 3.71D-02
 ErrMax= 3.71D-02 EMaxC= 1.00D-01 BMatC= 1.48D+00 BMatP= 1.48D+00
 IDIUse=3 WtCom= 6.29D-01 WtEn= 3.71D-01
 Coeff-Com:  0.100D+01
 Coeff-En:   0.100D+01
 Coeff:      0.100D+01
 Gap=     0.180 Goal=   None    Shift=    0.000
 Gap=     0.170 Goal=   None    Shift=    0.000
 GapD=    0.170 DampG=1.000 DampE=0.500 DampFc=0.5000 IDamp=-1.
 Damping current iteration by 5.00D-01
 RMSDP=1.49D-02 MaxDP=1.63D+00              OVMax= 2.52D-01

 Cycle   2  Pass 1  IDiag  1:
 RMSU=  3.24D-03    CP:  7.91D-01
 E= -504.613907026149     Delta-E=       -0.146048869253 Rises=F Damp=T
 DIIS: error= 5.89D-03 at cycle   2 NSaved=   2.
 NSaved= 2 IEnMin= 2 EnMin= -504.613907026149     IErMin= 2 ErrMin= 5.89D-03
 ErrMax= 5.89D-03 EMaxC= 1.00D-01 BMatC= 1.18D-01 BMatP= 1.48D+00
 IDIUse=3 WtCom= 9.41D-01 WtEn= 5.89D-02
 Coeff-Com:  0.991D-01 0.901D+00
 Coeff-En:   0.203D+00 0.797D+00
 Coeff:      0.105D+00 0.895D+00
 Gap=     0.228 Goal=   None    Shift=    0.000
 Gap=     0.212 Goal=   None    Shift=    0.000
 RMSDP=4.65D-03 MaxDP=3.61D-01 DE=-1.46D-01 OVMax= 2.15D-01

 Cycle   3  Pass 1  IDiag  1:
 RMSU=  2.85D-03    CP:  8.26D-01  6.53D-01
 E= -504.816849036198     Delta-E=       -0.202942010049 Rises=F Damp=F
 DIIS: error= 9.05D-03 at cycle   3 NSaved=   3.
 NSaved= 3 IEnMin= 3 EnMin= -504.816849036198     IErMin= 2 ErrMin= 5.89D-03
 ErrMax= 9.05D-03 EMaxC= 1.00D-01 BMatC= 9.96D-02 BMatP= 1.18D-01
 IDIUse=3 WtCom= 9.09D-01 WtEn= 9.05D-02
 Coeff-Com:  0.229D-03 0.475D+00 0.525D+00
 Coeff-En:   0.000D+00 0.000D+00 0.100D+01
 Coeff:      0.209D-03 0.432D+00 0.568D+00
 Gap=     0.221 Goal=   None    Shift=    0.000
 Gap=     0.144 Goal=   None    Shift=    0.000
 RMSDP=2.50D-03 MaxDP=2.63D-01 DE=-2.03D-01 OVMax= 1.34D-01

 Cycle   4  Pass 1  IDiag  1:
 RMSU=  1.00D-03    CP:  7.93D-01  7.69D-01  5.93D-01
 E= -504.829003346050     Delta-E=       -0.012154309852 Rises=F Damp=F
 DIIS: error= 7.43D-03 at cycle   4 NSaved=   4.
 NSaved= 4 IEnMin= 4 EnMin= -504.829003346050     IErMin= 2 ErrMin= 5.89D-03
 ErrMax= 7.43D-03 EMaxC= 1.00D-01 BMatC= 4.97D-02 BMatP= 9.96D-02
 IDIUse=3 WtCom= 9.26D-01 WtEn= 7.43D-02
 Coeff-Com: -0.164D-01 0.131D+00 0.419D+00 0.467D+00
 Coeff-En:   0.000D+00 0.000D+00 0.336D+00 0.664D+00
 Coeff:     -0.152D-01 0.121D+00 0.413D+00 0.482D+00
 Gap=     0.210 Goal=   None    Shift=    0.000
 Gap=     0.138 Goal=   None    Shift=    0.000
 RMSDP=1.06D-03 MaxDP=1.54D-01 DE=-1.22D-02 OVMax= 2.77D-02

 Cycle   5  Pass 1  IDiag  1:
 RMSU=  3.89D-04    CP:  7.68D-01  7.95D-01  6.98D-01  7.53D-01
 E= -504.838248360633     Delta-E=       -0.009245014583 Rises=F Damp=F
 DIIS: error= 1.13D-03 at cycle   5 NSaved=   5.
 NSaved= 5 IEnMin= 5 EnMin= -504.838248360633     IErMin= 5 ErrMin= 1.13D-03
 ErrMax= 1.13D-03 EMaxC= 1.00D-01 BMatC= 1.77D-03 BMatP= 4.97D-02
 IDIUse=3 WtCom= 9.89D-01 WtEn= 1.13D-02
 Coeff-Com: -0.733D-02 0.270D-01 0.184D+00 0.236D+00 0.560D+00
 Coeff-En:   0.000D+00 0.000D+00 0.000D+00 0.000D+00 0.100D+01
 Coeff:     -0.724D-02 0.267D-01 0.182D+00 0.234D+00 0.565D+00
 Gap=     0.208 Goal=   None    Shift=    0.000
 Gap=     0.138 Goal=   None    Shift=    0.000
 RMSDP=4.01D-04 MaxDP=6.11D-02 DE=-9.25D-03 OVMax= 9.08D-03

 Cycle   6  Pass 1  IDiag  1:
 RMSU=  1.45D-04    CP:  7.77D-01  7.83D-01  7.38D-01  7.10D-01  7.62D-01
 E= -504.838556977188     Delta-E=       -0.000308616554 Rises=F Damp=F
 DIIS: error= 1.17D-03 at cycle   6 NSaved=   6.
 NSaved= 6 IEnMin= 6 EnMin= -504.838556977188     IErMin= 5 ErrMin= 1.13D-03
 ErrMax= 1.17D-03 EMaxC= 1.00D-01 BMatC= 7.24D-04 BMatP= 1.77D-03
 IDIUse=3 WtCom= 9.89D-01 WtEn= 1.13D-02
 Coeff-Com: -0.740D-03-0.866D-02 0.436D-01 0.493D-01 0.383D+00 0.533D+00
 Coeff-En:   0.000D+00 0.000D+00 0.000D+00 0.000D+00 0.181D+00 0.819D+00
 Coeff:     -0.732D-03-0.856D-02 0.431D-01 0.487D-01 0.381D+00 0.536D+00
 Gap=     0.210 Goal=   None    Shift=    0.000
 Gap=     0.140 Goal=   None    Shift=    0.000
 RMSDP=1.46D-04 MaxDP=2.11D-02 DE=-3.09D-04 OVMax= 1.08D-02

 Cycle   7  Pass 1  IDiag  1:
 RMSU=  7.07D-05    CP:  7.75D-01  7.76D-01  7.37D-01  7.13D-01  7.97D-01
                    CP:  7.66D-01
 E= -504.838710333130     Delta-E=       -0.000153355942 Rises=F Damp=F
 DIIS: error= 3.57D-04 at cycle   7 NSaved=   7.
 NSaved= 7 IEnMin= 7 EnMin= -504.838710333130     IErMin= 7 ErrMin= 3.57D-04
 ErrMax= 3.57D-04 EMaxC= 1.00D-01 BMatC= 9.21D-05 BMatP= 7.24D-04
 IDIUse=3 WtCom= 9.96D-01 WtEn= 3.57D-03
 Coeff-Com:  0.164D-02-0.963D-02-0.139D-01-0.343D-01 0.587D-01 0.272D+00
 Coeff-Com:  0.726D+00
 Coeff-En:   0.000D+00 0.000D+00 0.000D+00 0.000D+00 0.000D+00 0.000D+00
 Coeff-En:   0.100D+01
 Coeff:      0.163D-02-0.959D-02-0.138D-01-0.342D-01 0.585D-01 0.271D+00
 Coeff:      0.727D+00
 Gap=     0.210 Goal=   None    Shift=    0.000
 Gap=     0.140 Goal=   None    Shift=    0.000
 RMSDP=7.03D-05 MaxDP=5.44D-03 DE=-1.53D-04 OVMax= 6.67D-03

 Cycle   8  Pass 1  IDiag  1:
 RMSU=  4.18D-05    CP:  7.75D-01  7.77D-01  7.42D-01  7.17D-01  8.27D-01
                    CP:  8.76D-01  1.02D+00
 E= -504.838747071222     Delta-E=       -0.000036738092 Rises=F Damp=F
 DIIS: error= 1.29D-04 at cycle   8 NSaved=   8.
 NSaved= 8 IEnMin= 8 EnMin= -504.838747071222     IErMin= 8 ErrMin= 1.29D-04
 ErrMax= 1.29D-04 EMaxC= 1.00D-01 BMatC= 2.04D-05 BMatP= 9.21D-05
 IDIUse=3 WtCom= 9.99D-01 WtEn= 1.29D-03
 Coeff-Com:  0.120D-02-0.135D-02-0.180D-01-0.360D-01-0.970D-01-0.372D-01
 Coeff-Com:  0.371D+00 0.817D+00
 Coeff-En:   0.000D+00 0.000D+00 0.000D+00 0.000D+00 0.000D+00 0.000D+00
 Coeff-En:   0.000D+00 0.100D+01
 Coeff:      0.120D-02-0.135D-02-0.180D-01-0.360D-01-0.969D-01-0.371D-01
 Coeff:      0.371D+00 0.817D+00
 Gap=     0.210 Goal=   None    Shift=    0.000
 Gap=     0.140 Goal=   None    Shift=    0.000
 RMSDP=5.29D-05 MaxDP=8.55D-03 DE=-3.67D-05 OVMax= 6.22D-03

 Cycle   9  Pass 1  IDiag  1:
 RMSU=  1.66D-05    CP:  7.74D-01  7.74D-01  7.43D-01  7.15D-01  8.38D-01
                    CP:  9.68D-01  1.31D+00  1.01D+00
 E= -504.838759303558     Delta-E=       -0.000012232336 Rises=F Damp=F
 DIIS: error= 3.88D-05 at cycle   9 NSaved=   9.
 NSaved= 9 IEnMin= 9 EnMin= -504.838759303558     IErMin= 9 ErrMin= 3.88D-05
 ErrMax= 3.88D-05 EMaxC= 1.00D-01 BMatC= 1.89D-06 BMatP= 2.04D-05
 IDIUse=1 WtCom= 1.00D+00 WtEn= 0.00D+00
 Coeff-Com:  0.525D-04 0.916D-03-0.228D-02-0.578D-02-0.334D-01-0.457D-01
 Coeff-Com: -0.535D-02 0.227D+00 0.864D+00
 Coeff:      0.525D-04 0.916D-03-0.228D-02-0.578D-02-0.334D-01-0.457D-01
 Coeff:     -0.535D-02 0.227D+00 0.864D+00
 Gap=     0.210 Goal=   None    Shift=    0.000
 Gap=     0.140 Goal=   None    Shift=    0.000
 RMSDP=1.94D-05 MaxDP=1.55D-03 DE=-1.22D-05 OVMax= 2.30D-03

 Cycle  10  Pass 1  IDiag  1:
 RMSU=  7.90D-06    CP:  7.74D-01  7.74D-01  7.45D-01  7.14D-01  8.42D-01
                    CP:  1.00D+00  1.38D+00  1.15D+00  9.06D-01
 E= -504.838760863659     Delta-E=       -0.000001560101 Rises=F Damp=F
 DIIS: error= 1.97D-05 at cycle  10 NSaved=  10.
 NSaved=10 IEnMin=10 EnMin= -504.838760863659     IErMin=10 ErrMin= 1.97D-05
 ErrMax= 1.97D-05 EMaxC= 1.00D-01 BMatC= 3.84D-07 BMatP= 1.89D-06
 IDIUse=1 WtCom= 1.00D+00 WtEn= 0.00D+00
 Coeff-Com: -0.231D-03 0.550D-03 0.325D-02 0.536D-02 0.105D-01-0.141D-02
 Coeff-Com: -0.829D-01-0.983D-01 0.265D+00 0.898D+00
 Coeff:     -0.231D-03 0.550D-03 0.325D-02 0.536D-02 0.105D-01-0.141D-02
 Coeff:     -0.829D-01-0.983D-01 0.265D+00 0.898D+00
 Gap=     0.210 Goal=   None    Shift=    0.000
 Gap=     0.140 Goal=   None    Shift=    0.000
 RMSDP=8.57D-06 MaxDP=8.22D-04 DE=-1.56D-06 OVMax= 1.07D-03

 Cycle  11  Pass 1  IDiag  1:
 RMSU=  2.57D-06    CP:  7.74D-01  7.75D-01  7.45D-01  7.15D-01  8.43D-01
                    CP:  1.02D+00  1.40D+00  1.19D+00  1.11D+00  9.49D-01
 E= -504.838761190896     Delta-E=       -0.000000327237 Rises=F Damp=F
 DIIS: error= 6.55D-06 at cycle  11 NSaved=  11.
 NSaved=11 IEnMin=11 EnMin= -504.838761190896     IErMin=11 ErrMin= 6.55D-06
 ErrMax= 6.55D-06 EMaxC= 1.00D-01 BMatC= 7.23D-08 BMatP= 3.84D-07
 IDIUse=1 WtCom= 1.00D+00 WtEn= 0.00D+00
 Coeff-Com: -0.708D-04 0.607D-04 0.158D-02 0.270D-02 0.885D-02 0.748D-02
 Coeff-Com: -0.298D-01-0.687D-01-0.498D-01 0.317D+00 0.810D+00
 Coeff:     -0.708D-04 0.607D-04 0.158D-02 0.270D-02 0.885D-02 0.748D-02
 Coeff:     -0.298D-01-0.687D-01-0.498D-01 0.317D+00 0.810D+00
 Gap=     0.210 Goal=   None    Shift=    0.000
 Gap=     0.140 Goal=   None    Shift=    0.000
 RMSDP=3.01D-06 MaxDP=3.35D-04 DE=-3.27D-07 OVMax= 3.64D-04

 Cycle  12  Pass 1  IDiag  1:
 RMSU=  9.02D-07    CP:  7.74D-01  7.74D-01  7.45D-01  7.15D-01  8.44D-01
                    CP:  1.02D+00  1.41D+00  1.22D+00  1.13D+00  1.07D+00
                    CP:  1.12D+00
 E= -504.838761238330     Delta-E=       -0.000000047434 Rises=F Damp=F
 DIIS: error= 2.36D-06 at cycle  12 NSaved=  12.
 NSaved=12 IEnMin=12 EnMin= -504.838761238330     IErMin=12 ErrMin= 2.36D-06
 ErrMax= 2.36D-06 EMaxC= 1.00D-01 BMatC= 1.68D-08 BMatP= 7.23D-08
 IDIUse=1 WtCom= 1.00D+00 WtEn= 0.00D+00
 Coeff-Com:  0.216D-04-0.954D-04 0.798D-04 0.147D-03 0.197D-02 0.388D-02
 Coeff-Com:  0.316D-02-0.108D-01-0.805D-01-0.431D-01 0.379D+00 0.746D+00
 Coeff:      0.216D-04-0.954D-04 0.798D-04 0.147D-03 0.197D-02 0.388D-02
 Coeff:      0.316D-02-0.108D-01-0.805D-01-0.431D-01 0.379D+00 0.746D+00
 Gap=     0.210 Goal=   None    Shift=    0.000
 Gap=     0.140 Goal=   None    Shift=    0.000
 RMSDP=1.41D-06 MaxDP=1.40D-04 DE=-4.74D-08 OVMax= 1.50D-04

 Cycle  13  Pass 1  IDiag  1:
 RMSU=  3.53D-07    CP:  7.74D-01  7.74D-01  7.45D-01  7.15D-01  8.44D-01
                    CP:  1.02D+00  1.42D+00  1.22D+00  1.15D+00  1.13D+00
                    CP:  1.20D+00  1.06D+00
 E= -504.838761246498     Delta-E=       -0.000000008168 Rises=F Damp=F
 DIIS: error= 7.43D-07 at cycle  13 NSaved=  13.
 NSaved=13 IEnMin=13 EnMin= -504.838761246498     IErMin=13 ErrMin= 7.43D-07
 ErrMax= 7.43D-07 EMaxC= 1.00D-01 BMatC= 1.04D-09 BMatP= 1.68D-08
 IDIUse=1 WtCom= 1.00D+00 WtEn= 0.00D+00
 Coeff-Com:  0.149D-04-0.356D-04-0.148D-03-0.261D-03-0.403D-03 0.382D-03
 Coeff-Com:  0.372D-02 0.424D-02-0.188D-01-0.479D-01 0.266D-01 0.229D+00
 Coeff-Com:  0.803D+00
 Coeff:      0.149D-04-0.356D-04-0.148D-03-0.261D-03-0.403D-03 0.382D-03
 Coeff:      0.372D-02 0.424D-02-0.188D-01-0.479D-01 0.266D-01 0.229D+00
 Coeff:      0.803D+00
 Gap=     0.210 Goal=   None    Shift=    0.000
 Gap=     0.140 Goal=   None    Shift=    0.000
 RMSDP=4.19D-07 MaxDP=5.71D-05 DE=-8.17D-09 OVMax= 3.97D-05

 Cycle  14  Pass 1  IDiag  1:
 RMSU=  1.14D-07    CP:  7.74D-01  7.74D-01  7.45D-01  7.15D-01  8.44D-01
                    CP:  1.02D+00  1.42D+00  1.22D+00  1.15D+00  1.12D+00
                    CP:  1.26D+00  1.06D+00  8.66D-01
 E= -504.838761247063     Delta-E=       -0.000000000565 Rises=F Damp=F
 DIIS: error= 2.35D-07 at cycle  14 NSaved=  14.
 NSaved=14 IEnMin=14 EnMin= -504.838761247063     IErMin=14 ErrMin= 2.35D-07
 ErrMax= 2.35D-07 EMaxC= 1.00D-01 BMatC= 8.39D-11 BMatP= 1.04D-09
 IDIUse=1 WtCom= 1.00D+00 WtEn= 0.00D+00
 Coeff-Com:  0.117D-05-0.282D-06-0.386D-04-0.764D-04-0.237D-03-0.184D-03
 Coeff-Com:  0.607D-03 0.188D-02 0.204D-02-0.846D-02-0.266D-01-0.818D-02
 Coeff-Com:  0.195D+00 0.844D+00
 Coeff:      0.117D-05-0.282D-06-0.386D-04-0.764D-04-0.237D-03-0.184D-03
 Coeff:      0.607D-03 0.188D-02 0.204D-02-0.846D-02-0.266D-01-0.818D-02
 Coeff:      0.195D+00 0.844D+00
 Gap=     0.210 Goal=   None    Shift=    0.000
 Gap=     0.140 Goal=   None    Shift=    0.000
 RMSDP=1.40D-07 MaxDP=1.82D-05 DE=-5.65D-10 OVMax= 1.12D-05

 Cycle  15  Pass 1  IDiag  1:
 RMSU=  3.97D-08    CP:  7.74D-01  7.74D-01  7.45D-01  7.15D-01  8.44D-01
                    CP:  1.02D+00  1.42D+00  1.22D+00  1.15D+00  1.13D+00
                    CP:  1.26D+00  1.09D+00  9.22D-01  8.41D-01
 E= -504.838761247099     Delta-E=       -0.000000000036 Rises=F Damp=F
 DIIS: error= 1.36D-07 at cycle  15 NSaved=  15.
 NSaved=15 IEnMin=15 EnMin= -504.838761247099     IErMin=15 ErrMin= 1.36D-07
 ErrMax= 1.36D-07 EMaxC= 1.00D-01 BMatC= 2.74D-11 BMatP= 8.39D-11
 IDIUse=1 WtCom= 1.00D+00 WtEn= 0.00D+00
 Coeff-Com: -0.144D-05 0.459D-05 0.137D-05-0.467D-05-0.629D-04-0.145D-03
 Coeff-Com: -0.247D-03 0.311D-03 0.351D-02 0.243D-02-0.159D-01-0.348D-01
 Coeff-Com: -0.203D-01 0.388D+00 0.678D+00
 Coeff:     -0.144D-05 0.459D-05 0.137D-05-0.467D-05-0.629D-04-0.145D-03
 Coeff:     -0.247D-03 0.311D-03 0.351D-02 0.243D-02-0.159D-01-0.348D-01
 Coeff:     -0.203D-01 0.388D+00 0.678D+00
 Gap=     0.210 Goal=   None    Shift=    0.000
 Gap=     0.140 Goal=   None    Shift=    0.000
 RMSDP=3.87D-08 MaxDP=2.87D-06 DE=-3.64D-11 OVMax= 3.85D-06

 Cycle  16  Pass 1  IDiag  1:
 RMSU=  1.17D-08    CP:  7.74D-01  7.74D-01  7.45D-01  7.15D-01  8.44D-01
                    CP:  1.02D+00  1.42D+00  1.22D+00  1.15D+00  1.13D+00
                    CP:  1.26D+00  1.09D+00  9.37D-01  8.98D-01  8.20D-01
 E= -504.838761247102     Delta-E=       -0.000000000003 Rises=F Damp=F
 DIIS: error= 4.88D-08 at cycle  16 NSaved=  16.
 NSaved=16 IEnMin=16 EnMin= -504.838761247102     IErMin=16 ErrMin= 4.88D-08
 ErrMax= 4.88D-08 EMaxC= 1.00D-01 BMatC= 2.96D-12 BMatP= 2.74D-11
 IDIUse=1 WtCom= 1.00D+00 WtEn= 0.00D+00
 Coeff-Com: -0.555D-06 0.157D-05 0.656D-05 0.799D-05 0.113D-04-0.190D-04
 Coeff-Com: -0.180D-03-0.156D-03 0.902D-03 0.209D-02-0.132D-02-0.108D-01
 Coeff-Com: -0.381D-01-0.554D-02 0.224D+00 0.830D+00
 Coeff:     -0.555D-06 0.157D-05 0.656D-05 0.799D-05 0.113D-04-0.190D-04
 Coeff:     -0.180D-03-0.156D-03 0.902D-03 0.209D-02-0.132D-02-0.108D-01
 Coeff:     -0.381D-01-0.554D-02 0.224D+00 0.830D+00
 Gap=     0.210 Goal=   None    Shift=    0.000
 Gap=     0.140 Goal=   None    Shift=    0.000
 RMSDP=1.65D-08 MaxDP=1.59D-06 DE=-3.18D-12 OVMax= 1.37D-06

 Cycle  17  Pass 1  IDiag  1:
 RMSU=  6.07D-09    CP:  7.74D-01  7.74D-01  7.45D-01  7.15D-01  8.44D-01
                    CP:  1.02D+00  1.42D+00  1.22D+00  1.15D+00  1.13D+00
                    CP:  1.27D+00  1.09D+00  9.36D-01  9.25D-01  8.45D-01
                    CP:  8.78D-01
 E= -504.838761247114     Delta-E=       -0.000000000012 Rises=F Damp=F
 DIIS: error= 1.76D-08 at cycle  17 NSaved=  17.
 NSaved=17 IEnMin=17 EnMin= -504.838761247114     IErMin=17 ErrMin= 1.76D-08
 ErrMax= 1.76D-08 EMaxC= 1.00D-01 BMatC= 2.90D-13 BMatP= 2.96D-12
 IDIUse=1 WtCom= 1.00D+00 WtEn= 0.00D+00
 Coeff-Com:  0.141D-06-0.341D-06 0.109D-05 0.200D-05 0.986D-05 0.156D-04
 Coeff-Com: -0.294D-05-0.650D-04-0.291D-03 0.596D-04 0.192D-02 0.276D-02
 Coeff-Com: -0.439D-02-0.573D-01-0.538D-01 0.167D+00 0.944D+00
 Coeff:      0.141D-06-0.341D-06 0.109D-05 0.200D-05 0.986D-05 0.156D-04
 Coeff:     -0.294D-05-0.650D-04-0.291D-03 0.596D-04 0.192D-02 0.276D-02
 Coeff:     -0.439D-02-0.573D-01-0.538D-01 0.167D+00 0.944D+00
 Gap=     0.210 Goal=   None    Shift=    0.000
 Gap=     0.140 Goal=   None    Shift=    0.000
 RMSDP=7.51D-09 MaxDP=1.06D-06 DE=-1.18D-11 OVMax= 4.18D-07

 Cycle  18  Pass 1  IDiag  1:
 RMSU=  2.26D-09    CP:  7.74D-01  7.74D-01  7.45D-01  7.15D-01  8.44D-01
                    CP:  1.02D+00  1.42D+00  1.22D+00  1.15D+00  1.13D+00
                    CP:  1.27D+00  1.09D+00  9.36D-01  9.19D-01  8.84D-01
                    CP:  9.92D-01  8.57D-01
 E= -504.838761247114     Delta-E=        0.000000000000 Rises=F Damp=F
 DIIS: error= 7.98D-09 at cycle  18 NSaved=  18.
 NSaved=18 IEnMin=17 EnMin= -504.838761247114     IErMin=18 ErrMin= 7.98D-09
 ErrMax= 7.98D-09 EMaxC= 1.00D-01 BMatC= 4.99D-14 BMatP= 2.90D-13
 IDIUse=1 WtCom= 1.00D+00 WtEn= 0.00D+00
 Coeff-Com:  0.854D-07-0.242D-06-0.369D-06-0.370D-07 0.190D-05 0.589D-05
 Coeff-Com:  0.192D-04-0.124D-05-0.172D-03-0.210D-03 0.633D-03 0.197D-02
 Coeff-Com:  0.326D-02-0.131D-01-0.398D-01-0.620D-01 0.244D+00 0.865D+00
 Coeff:      0.854D-07-0.242D-06-0.369D-06-0.370D-07 0.190D-05 0.589D-05
 Coeff:      0.192D-04-0.124D-05-0.172D-03-0.210D-03 0.633D-03 0.197D-02
 Coeff:      0.326D-02-0.131D-01-0.398D-01-0.620D-01 0.244D+00 0.865D+00
 Gap=     0.210 Goal=   None    Shift=    0.000
 Gap=     0.140 Goal=   None    Shift=    0.000
 RMSDP=2.46D-09 MaxDP=3.64D-07 DE= 0.00D+00 OVMax= 9.01D-08

 SCF Done:  E(UB3LYP) =  -504.838761247     A.U. after   18 cycles
             Convg  =    0.2461D-08             -V/T =  2.0045
 <Sx>= 0.0000 <Sy>= 0.0000 <Sz>= 0.5000 <S**2>= 0.7566 S= 0.5033
 <L.S>= 0.000000000000E+00
 KE= 5.025886884933D+02 PE=-2.492403720746D+03 EE= 8.265721526477D+02
 Annihilation of the first spin contaminant:
 S**2 before annihilation     0.7566,   after     0.7500
 Leave Link  502 at Thu Feb 13 01:38:57 2014, MaxMem= 4026531840 cpu:    2246.4
 (Enter /usr/caen/gaussian-09revc/g09/l801.exe)
 Range of M.O.s used for correlation:     1   375
 NBasis=   375 NAE=    45 NBE=    44 NFC=     0 NFV=     0
 NROrb=    375 NOA=    45 NOB=    44 NVA=   330 NVB=   331

 **** Warning!!: The largest alpha MO coefficient is  0.14218406D+03


 **** Warning!!: The largest beta MO coefficient is  0.14192517D+03

 Leave Link  801 at Thu Feb 13 01:38:58 2014, MaxMem= 4026531840 cpu:       0.4
 (Enter /usr/caen/gaussian-09revc/g09/l1101.exe)
 Using compressed storage, NAtomX=    30.
 Will process  31 centers per pass.
 Leave Link 1101 at Thu Feb 13 01:38:59 2014, MaxMem= 4026531840 cpu:       5.0
 (Enter /usr/caen/gaussian-09revc/g09/l1102.exe)
 Symmetrizing basis deriv contribution to polar:
 IMax=3 JMax=2 DiffMx= 0.00D+00
 Leave Link 1102 at Thu Feb 13 01:38:59 2014, MaxMem= 4026531840 cpu:       1.5
 (Enter /usr/caen/gaussian-09revc/g09/l1110.exe)
 Forming Gx(P) for the SCF density, NAtomX=    30.
 Integral derivatives from FoFDir/FoFCou, PRISM(SPDF).
 Do as many integral derivatives as possible in FoFDir.
 G2DrvN: MDV=    4026531496.
 G2DrvN: will do    31 centers at a time, making    1 passes doing MaxLOS=2.
 Calling FoFCou, ICntrl=  3107 FMM=F I1Cent=   0 AccDes= 0.00D+00.
 FoFCou: FMM=F IPFlag=           0 FMFlag=      100000 FMFlg1=           0
         NFxFlg=           0 DoJE=F BraDBF=F KetDBF=F FulRan=T
         Omega=  0.000000  0.000000  1.000000  0.000000  0.000000 ICntrl=    3107 IOpCl=  1
         NMat0=    1 NMatS0=    1 NMatT0=    0 NMatD0=    1 NMtDS0=    0 NMtDT0=    0
         I1Cent=           0 NGrid=           0.
 Symmetry not used in FoFCou.
 FoFDir/FoFCou used for L=0 through L=2.
 End of G2Drv Frequency-dependent properties file   721 does not exist.
 End of G2Drv Frequency-dependent properties file   722 does not exist.
 Leave Link 1110 at Thu Feb 13 01:43:18 2014, MaxMem= 4026531840 cpu:    2066.9
 (Enter /usr/caen/gaussian-09revc/g09/l1002.exe)
 Minotr:  UHF open shell wavefunction.
          IDoAtm=111111111111111111111111111111
          Direct CPHF calculation.
          Differentiating once with respect to electric field.
                with respect to dipole field.
          Differentiating once with respect to nuclear coordinates.
          Requested convergence is 1.0D-08 RMS, and 1.0D-07 maximum.
          Secondary convergence is 1.0D-12 RMS, and 1.0D-12 maximum.
          NewPWx=T KeepS1=F KeepF1=F KeepIn=T MapXYZ=F SortEE=F KeepMc=T.
          MDV=    4026531536 using IRadAn=       2.
 Generate precomputed XC quadrature information.
          Solving linear equations simultaneously, MaxMat=       0.
 Integrals replicated using symmetry in FoFDir.
 MinBra= 0 MaxBra= 2 Meth= 1.
 IRaf=       0 NMat=  93 IRICut=     232 DoRegI=T DoRafI=T ISym2E= 2 JSym2E=2.
          There are    93 degrees of freedom in the 1st order CPHF.  IDoFFX=5.
     90 vectors produced by pass  0 Test12= 3.16D-14 1.08D-09 XBig12= 2.12D+02 4.88D+00.
 AX will form    90 AO Fock derivatives at one time.
     90 vectors produced by pass  1 Test12= 3.16D-14 1.08D-09 XBig12= 3.96D+01 9.82D-01.
     90 vectors produced by pass  2 Test12= 3.16D-14 1.08D-09 XBig12= 6.35D-01 7.51D-02.
     90 vectors produced by pass  3 Test12= 3.16D-14 1.08D-09 XBig12= 2.48D-03 4.23D-03.
     90 vectors produced by pass  4 Test12= 3.16D-14 1.08D-09 XBig12= 1.51D-05 2.38D-04.
     88 vectors produced by pass  5 Test12= 3.16D-14 1.08D-09 XBig12= 8.11D-08 2.25D-05.
     45 vectors produced by pass  6 Test12= 3.16D-14 1.08D-09 XBig12= 2.65D-10 1.12D-06.
     14 vectors produced by pass  7 Test12= 3.16D-14 1.08D-09 XBig12= 5.28D-12 1.97D-07.
     11 vectors produced by pass  8 Test12= 3.16D-14 1.08D-09 XBig12= 3.74D-13 6.29D-08.
      6 vectors produced by pass  9 Test12= 3.16D-14 1.08D-09 XBig12= 1.90D-15 3.48D-09.
      3 vectors produced by pass 10 Test12= 3.16D-14 1.08D-09 XBig12= 1.96D-16 1.65D-09.
 Inverted reduced A of dimension   617 with in-core refinement.
 FullF1:  Do perturbations    1 to     3.
 Isotropic polarizability for W=    0.000000      126.38 Bohr**3.
 End of Minotr Frequency-dependent properties file   721 does not exist.
 End of Minotr Frequency-dependent properties file   722 does not exist.
 Leave Link 1002 at Thu Feb 13 02:12:18 2014, MaxMem= 4026531840 cpu:   13907.0
 (Enter /usr/caen/gaussian-09revc/g09/l601.exe)
 Copying SCF densities to generalized density rwf, IOpCl= 1 IROHF=0.

 **********************************************************************

            Population analysis using the SCF density.

 **********************************************************************

 Orbital symmetries:
 Alpha Orbitals:
       Occupied  (A) (A) (A) (A) (A) (A) (A) (A) (A) (A) (A) (A)
                 (A) (A) (A) (A) (A) (A) (A) (A) (A) (A) (A) (A)
                 (A) (A) (A) (A) (A) (A) (A) (A) (A) (A) (A) (A)
                 (A) (A) (A) (A) (A) (A) (A) (A) (A)
       Virtual   (A) (A) (A) (A) (A) (A) (A) (A) (A) (A) (A) (A)
                 (A) (A) (A) (A) (A) (A) (A) (A) (A) (A) (A) (A)
                 (A) (A) (A) (A) (A) (A) (A) (A) (A) (A) (A) (A)
                 (A) (A) (A) (A) (A) (A) (A) (A) (A) (A) (A) (A)
                 (A) (A) (A) (A) (A) (A) (A) (A) (A) (A) (A) (A)
                 (A) (A) (A) (A) (A) (A) (A) (A) (A) (A) (A) (A)
                 (A) (A) (A) (A) (A) (A) (A) (A) (A) (A) (A) (A)
                 (A) (A) (A) (A) (A) (A) (A) (A) (A) (A) (A) (A)
                 (A) (A) (A) (A) (A) (A) (A) (A) (A) (A) (A) (A)
                 (A) (A) (A) (A) (A) (A) (A) (A) (A) (A) (A) (A)
                 (A) (A) (A) (A) (A) (A) (A) (A) (A) (A) (A) (A)
                 (A) (A) (A) (A) (A) (A) (A) (A) (A) (A) (A) (A)
                 (A) (A) (A) (A) (A) (A) (A) (A) (A) (A) (A) (A)
                 (A) (A) (A) (A) (A) (A) (A) (A) (A) (A) (A) (A)
                 (A) (A) (A) (A) (A) (A) (A) (A) (A) (A) (A) (A)
                 (A) (A) (A) (A) (A) (A) (A) (A) (A) (A) (A) (A)
                 (A) (A) (A) (A) (A) (A) (A) (A) (A) (A) (A) (A)
                 (A) (A) (A) (A) (A) (A) (A) (A) (A) (A) (A) (A)
                 (A) (A) (A) (A) (A) (A) (A) (A) (A) (A) (A) (A)
                 (A) (A) (A) (A) (A) (A) (A) (A) (A) (A) (A) (A)
                 (A) (A) (A) (A) (A) (A) (A) (A) (A) (A) (A) (A)
                 (A) (A) (A) (A) (A) (A) (A) (A) (A) (A) (A) (A)
                 (A) (A) (A) (A) (A) (A) (A) (A) (A) (A) (A) (A)
                 (A) (A) (A) (A) (A) (A) (A) (A) (A) (A) (A) (A)
                 (A) (A) (A) (A) (A) (A) (A) (A) (A) (A) (A) (A)
                 (A) (A) (A) (A) (A) (A) (A) (A) (A) (A) (A) (A)
                 (A) (A) (A) (A) (A) (A) (A) (A) (A) (A) (A) (A)
                 (A) (A) (A) (A) (A) (A)
 Beta  Orbitals:
       Occupied  (A) (A) (A) (A) (A) (A) (A) (A) (A) (A) (A) (A)
                 (A) (A) (A) (A) (A) (A) (A) (A) (A) (A) (A) (A)
                 (A) (A) (A) (A) (A) (A) (A) (A) (A) (A) (A) (A)
                 (A) (A) (A) (A) (A) (A) (A) (A)
       Virtual   (A) (A) (A) (A) (A) (A) (A) (A) (A) (A) (A) (A)
                 (A) (A) (A) (A) (A) (A) (A) (A) (A) (A) (A) (A)
                 (A) (A) (A) (A) (A) (A) (A) (A) (A) (A) (A) (A)
                 (A) (A) (A) (A) (A) (A) (A) (A) (A) (A) (A) (A)
                 (A) (A) (A) (A) (A) (A) (A) (A) (A) (A) (A) (A)
                 (A) (A) (A) (A) (A) (A) (A) (A) (A) (A) (A) (A)
                 (A) (A) (A) (A) (A) (A) (A) (A) (A) (A) (A) (A)
                 (A) (A) (A) (A) (A) (A) (A) (A) (A) (A) (A) (A)
                 (A) (A) (A) (A) (A) (A) (A) (A) (A) (A) (A) (A)
                 (A) (A) (A) (A) (A) (A) (A) (A) (A) (A) (A) (A)
                 (A) (A) (A) (A) (A) (A) (A) (A) (A) (A) (A) (A)
                 (A) (A) (A) (A) (A) (A) (A) (A) (A) (A) (A) (A)
                 (A) (A) (A) (A) (A) (A) (A) (A) (A) (A) (A) (A)
                 (A) (A) (A) (A) (A) (A) (A) (A) (A) (A) (A) (A)
                 (A) (A) (A) (A) (A) (A) (A) (A) (A) (A) (A) (A)
                 (A) (A) (A) (A) (A) (A) (A) (A) (A) (A) (A) (A)
                 (A) (A) (A) (A) (A) (A) (A) (A) (A) (A) (A) (A)
                 (A) (A) (A) (A) (A) (A) (A) (A) (A) (A) (A) (A)
                 (A) (A) (A) (A) (A) (A) (A) (A) (A) (A) (A) (A)
                 (A) (A) (A) (A) (A) (A) (A) (A) (A) (A) (A) (A)
                 (A) (A) (A) (A) (A) (A) (A) (A) (A) (A) (A) (A)
                 (A) (A) (A) (A) (A) (A) (A) (A) (A) (A) (A) (A)
                 (A) (A) (A) (A) (A) (A) (A) (A) (A) (A) (A) (A)
                 (A) (A) (A) (A) (A) (A) (A) (A) (A) (A) (A) (A)
                 (A) (A) (A) (A) (A) (A) (A) (A) (A) (A) (A) (A)
                 (A) (A) (A) (A) (A) (A) (A) (A) (A) (A) (A) (A)
                 (A) (A) (A) (A) (A) (A) (A) (A) (A) (A) (A) (A)
                 (A) (A) (A) (A) (A) (A) (A)
 The electronic state is 2-A.
 Alpha  occ. eigenvalues --  -19.19076 -19.17612 -10.23284 -10.19808 -10.19567
 Alpha  occ. eigenvalues --  -10.18149 -10.17892 -10.17085 -10.17010 -10.16020
 Alpha  occ. eigenvalues --  -10.15989  -1.13448  -0.89439  -0.83877  -0.81196
 Alpha  occ. eigenvalues --   -0.75907  -0.69445  -0.68799  -0.67567  -0.61613
 Alpha  occ. eigenvalues --   -0.59440  -0.56461  -0.52722  -0.50064  -0.47929
 Alpha  occ. eigenvalues --   -0.47224  -0.45989  -0.44514  -0.43983  -0.43228
 Alpha  occ. eigenvalues --   -0.41971  -0.40100  -0.38944  -0.38575  -0.37761
 Alpha  occ. eigenvalues --   -0.37317  -0.37029  -0.36047  -0.35183  -0.33303
 Alpha  occ. eigenvalues --   -0.32997  -0.32706  -0.32052  -0.26895  -0.22401
 Alpha virt. eigenvalues --   -0.01402  -0.00477   0.00017   0.00629   0.01578
 Alpha virt. eigenvalues --    0.01776   0.02178   0.02552   0.03610   0.03860
 Alpha virt. eigenvalues --    0.04007   0.04412   0.05357   0.05593   0.05896
 Alpha virt. eigenvalues --    0.06110   0.06826   0.07462   0.07923   0.08818
 Alpha virt. eigenvalues --    0.09048   0.09625   0.09919   0.10386   0.10712
 Alpha virt. eigenvalues --    0.11136   0.11268   0.11776   0.11933   0.12184
 Alpha virt. eigenvalues --    0.12649   0.13058   0.13157   0.13533   0.13783
 Alpha virt. eigenvalues --    0.14305   0.14571   0.14815   0.14920   0.15437
 Alpha virt. eigenvalues --    0.15621   0.16267   0.16502   0.16928   0.17049
 Alpha virt. eigenvalues --    0.17527   0.17551   0.18030   0.18370   0.18606
 Alpha virt. eigenvalues --    0.19063   0.19608   0.19871   0.20192   0.20827
 Alpha virt. eigenvalues --    0.21209   0.21534   0.22190   0.22444   0.22849
 Alpha virt. eigenvalues --    0.23646   0.24176   0.24763   0.24968   0.25552
 Alpha virt. eigenvalues --    0.26202   0.26726   0.27157   0.27387   0.28313
 Alpha virt. eigenvalues --    0.28545   0.29299   0.30336   0.30815   0.31016
 Alpha virt. eigenvalues --    0.32007   0.32711   0.32946   0.33393   0.33975
 Alpha virt. eigenvalues --    0.34073   0.34523   0.35330   0.35463   0.36192
 Alpha virt. eigenvalues --    0.36926   0.37668   0.39182   0.39880   0.40993
 Alpha virt. eigenvalues --    0.43530   0.43915   0.45923   0.46368   0.47330
 Alpha virt. eigenvalues --    0.47839   0.49153   0.51008   0.51765   0.52541
 Alpha virt. eigenvalues --    0.52891   0.53395   0.54944   0.56459   0.57013
 Alpha virt. eigenvalues --    0.57952   0.59124   0.59514   0.60814   0.61301
 Alpha virt. eigenvalues --    0.63848   0.64323   0.64663   0.65809   0.66511
 Alpha virt. eigenvalues --    0.67123   0.67861   0.68255   0.68961   0.69172
 Alpha virt. eigenvalues --    0.69601   0.70081   0.71552   0.72097   0.72498
 Alpha virt. eigenvalues --    0.72966   0.74187   0.74343   0.75346   0.75476
 Alpha virt. eigenvalues --    0.77059   0.77607   0.78667   0.79241   0.80083
 Alpha virt. eigenvalues --    0.81177   0.83262   0.85942   0.88144   0.90433
 Alpha virt. eigenvalues --    0.94455   0.97124   0.98084   0.99925   1.01266
 Alpha virt. eigenvalues --    1.04086   1.05187   1.07636   1.08719   1.10582
 Alpha virt. eigenvalues --    1.12235   1.13364   1.14869   1.16513   1.16959
 Alpha virt. eigenvalues --    1.18679   1.20390   1.20909   1.22967   1.26885
 Alpha virt. eigenvalues --    1.30822   1.32343   1.34455   1.37651   1.41030
 Alpha virt. eigenvalues --    1.43298   1.45024   1.45574   1.45848   1.47169
 Alpha virt. eigenvalues --    1.47347   1.47779   1.48905   1.51011   1.53672
 Alpha virt. eigenvalues --    1.55071   1.56562   1.56779   1.58039   1.58770
 Alpha virt. eigenvalues --    1.59461   1.59681   1.60964   1.61318   1.62400
 Alpha virt. eigenvalues --    1.63433   1.64014   1.64993   1.65256   1.66528
 Alpha virt. eigenvalues --    1.66980   1.68535   1.68888   1.71002   1.71672
 Alpha virt. eigenvalues --    1.73518   1.74430   1.74902   1.75914   1.76957
 Alpha virt. eigenvalues --    1.78833   1.79407   1.80382   1.80900   1.81603
 Alpha virt. eigenvalues --    1.83380   1.86068   1.87389   1.89605   1.91735
 Alpha virt. eigenvalues --    1.93569   1.96960   1.97892   1.99897   2.03489
 Alpha virt. eigenvalues --    2.06139   2.06456   2.07436   2.09469   2.10966
 Alpha virt. eigenvalues --    2.13788   2.14659   2.15652   2.16394   2.18551
 Alpha virt. eigenvalues --    2.21160   2.22284   2.24376   2.26016   2.28166
 Alpha virt. eigenvalues --    2.31122   2.32581   2.34616   2.37068   2.38616
 Alpha virt. eigenvalues --    2.40988   2.43226   2.45323   2.46683   2.47600
 Alpha virt. eigenvalues --    2.48786   2.49848   2.50154   2.50673   2.52127
 Alpha virt. eigenvalues --    2.54139   2.56211   2.57116   2.57300   2.57946
 Alpha virt. eigenvalues --    2.58614   2.59453   2.59692   2.61590   2.63398
 Alpha virt. eigenvalues --    2.64284   2.64653   2.65873   2.67655   2.70461
 Alpha virt. eigenvalues --    2.72160   2.73086   2.74555   2.75650   2.76418
 Alpha virt. eigenvalues --    2.77734   2.79037   2.80989   2.82595   2.85760
 Alpha virt. eigenvalues --    2.87911   2.89138   2.92215   2.93131   2.93393
 Alpha virt. eigenvalues --    2.95720   2.96967   2.97940   2.98667   3.01935
 Alpha virt. eigenvalues --    3.03530   3.05367   3.08212   3.16136   3.17326
 Alpha virt. eigenvalues --    3.19581   3.23034   3.25536   3.31978   3.38860
 Alpha virt. eigenvalues --    3.44504   3.47920   3.53122   3.71305   3.77765
 Alpha virt. eigenvalues --    3.78526   3.78832   3.80282   3.80955   3.81939
 Alpha virt. eigenvalues --    3.83379   3.84343   3.87148   3.89877   3.94968
 Alpha virt. eigenvalues --    3.99145   4.02239   4.12035   4.20435   4.26889
 Alpha virt. eigenvalues --    4.29850   4.32720   4.41069   4.89127   5.02600
 Alpha virt. eigenvalues --    5.08298   5.32291   5.45255   5.78431  23.80265
 Alpha virt. eigenvalues --   23.82839  23.85034  23.88420  23.89699  23.92278
 Alpha virt. eigenvalues --   23.97632  23.97661  23.98578  49.86411  49.89782
  Beta  occ. eigenvalues --  -19.18840 -19.16447 -10.23231 -10.19817 -10.18698
  Beta  occ. eigenvalues --  -10.18173 -10.17892 -10.17076 -10.17006 -10.16020
  Beta  occ. eigenvalues --  -10.15990  -1.12238  -0.87673  -0.83200  -0.80957
  Beta  occ. eigenvalues --   -0.75645  -0.69132  -0.68795  -0.66877  -0.61260
  Beta  occ. eigenvalues --   -0.58282  -0.56400  -0.51474  -0.49752  -0.47648
  Beta  occ. eigenvalues --   -0.46680  -0.45528  -0.44211  -0.43792  -0.42542
  Beta  occ. eigenvalues --   -0.40919  -0.39874  -0.38872  -0.37991  -0.37496
  Beta  occ. eigenvalues --   -0.36822  -0.36089  -0.35622  -0.34905  -0.32965
  Beta  occ. eigenvalues --   -0.32861  -0.31996  -0.31472  -0.25452
  Beta virt. eigenvalues --   -0.11422  -0.01365  -0.00469   0.00049   0.00671
  Beta virt. eigenvalues --    0.01627   0.01841   0.02305   0.02778   0.03642
  Beta virt. eigenvalues --    0.03901   0.04075   0.04468   0.05492   0.05640
  Beta virt. eigenvalues --    0.05926   0.06165   0.06863   0.07507   0.07950
  Beta virt. eigenvalues --    0.08853   0.09107   0.09658   0.09989   0.10471
  Beta virt. eigenvalues --    0.10737   0.11198   0.11349   0.11820   0.11972
  Beta virt. eigenvalues --    0.12222   0.12730   0.13088   0.13224   0.13602
  Beta virt. eigenvalues --    0.13812   0.14329   0.14629   0.14874   0.14950
  Beta virt. eigenvalues --    0.15476   0.15660   0.16325   0.16578   0.17072
  Beta virt. eigenvalues --    0.17143   0.17594   0.17632   0.18100   0.18542
  Beta virt. eigenvalues --    0.18756   0.19167   0.19670   0.19938   0.20247
  Beta virt. eigenvalues --    0.21035   0.21289   0.21734   0.22309   0.22593
  Beta virt. eigenvalues --    0.22927   0.23752   0.24235   0.24925   0.25049
  Beta virt. eigenvalues --    0.25659   0.26381   0.26765   0.27207   0.27432
  Beta virt. eigenvalues --    0.28430   0.28752   0.29422   0.30422   0.30993
  Beta virt. eigenvalues --    0.31276   0.32126   0.32757   0.33253   0.33575
  Beta virt. eigenvalues --    0.34119   0.34344   0.34887   0.35442   0.35607
  Beta virt. eigenvalues --    0.36443   0.37190   0.37865   0.39283   0.39996
  Beta virt. eigenvalues --    0.41095   0.43648   0.43948   0.46070   0.46451
  Beta virt. eigenvalues --    0.47437   0.47967   0.49283   0.51168   0.52052
  Beta virt. eigenvalues --    0.52620   0.53073   0.53506   0.55149   0.56825
  Beta virt. eigenvalues --    0.57080   0.58029   0.59219   0.59661   0.60986
  Beta virt. eigenvalues --    0.61489   0.63968   0.64405   0.64847   0.65872
  Beta virt. eigenvalues --    0.66599   0.67261   0.67983   0.68330   0.69205
  Beta virt. eigenvalues --    0.69482   0.69755   0.70207   0.71606   0.72241
  Beta virt. eigenvalues --    0.72762   0.73186   0.74299   0.74546   0.75426
  Beta virt. eigenvalues --    0.75810   0.77126   0.77700   0.78762   0.79370
  Beta virt. eigenvalues --    0.80197   0.81262   0.83359   0.86113   0.88239
  Beta virt. eigenvalues --    0.90545   0.94704   0.97220   0.98360   1.00032
  Beta virt. eigenvalues --    1.01343   1.04252   1.05404   1.08066   1.08992
  Beta virt. eigenvalues --    1.11371   1.12688   1.13545   1.15738   1.16778
  Beta virt. eigenvalues --    1.17189   1.18793   1.20749   1.21103   1.23453
  Beta virt. eigenvalues --    1.27251   1.31028   1.32523   1.34970   1.38064
  Beta virt. eigenvalues --    1.41154   1.43514   1.45094   1.45860   1.45927
  Beta virt. eigenvalues --    1.47247   1.47402   1.47889   1.49289   1.51541
  Beta virt. eigenvalues --    1.54228   1.55396   1.56750   1.56851   1.58350
  Beta virt. eigenvalues --    1.58818   1.59710   1.59978   1.61194   1.61624
  Beta virt. eigenvalues --    1.62600   1.63560   1.64089   1.65104   1.65440
  Beta virt. eigenvalues --    1.66787   1.67365   1.68660   1.69027   1.71116
  Beta virt. eigenvalues --    1.71827   1.73658   1.74510   1.75057   1.76053
  Beta virt. eigenvalues --    1.77242   1.79033   1.79595   1.80556   1.81128
  Beta virt. eigenvalues --    1.81727   1.83526   1.86415   1.87788   1.89956
  Beta virt. eigenvalues --    1.91978   1.93791   1.97238   1.97979   2.00256
  Beta virt. eigenvalues --    2.03745   2.06381   2.06586   2.07495   2.09681
  Beta virt. eigenvalues --    2.11390   2.13937   2.14780   2.15769   2.16916
  Beta virt. eigenvalues --    2.19089   2.21456   2.22669   2.24977   2.26267
  Beta virt. eigenvalues --    2.28337   2.31274   2.32840   2.34801   2.37281
  Beta virt. eigenvalues --    2.39071   2.41171   2.43899   2.45508   2.46721
  Beta virt. eigenvalues --    2.47750   2.48825   2.49879   2.50233   2.50798
  Beta virt. eigenvalues --    2.52192   2.54168   2.56380   2.57231   2.57649
  Beta virt. eigenvalues --    2.58107   2.59228   2.59646   2.59830   2.61802
  Beta virt. eigenvalues --    2.63633   2.64421   2.64824   2.66095   2.67824
  Beta virt. eigenvalues --    2.70597   2.72470   2.73282   2.74705   2.75732
  Beta virt. eigenvalues --    2.76477   2.77881   2.79274   2.81079   2.82801
  Beta virt. eigenvalues --    2.85959   2.88085   2.89597   2.92576   2.93374
  Beta virt. eigenvalues --    2.93781   2.95758   2.97170   2.98586   2.99135
  Beta virt. eigenvalues --    3.02343   3.04140   3.05958   3.08424   3.16312
  Beta virt. eigenvalues --    3.17600   3.19990   3.24114   3.26166   3.32577
  Beta virt. eigenvalues --    3.39082   3.45611   3.48948   3.53662   3.72112
  Beta virt. eigenvalues --    3.77887   3.78541   3.78966   3.80334   3.81005
  Beta virt. eigenvalues --    3.82015   3.83481   3.84859   3.87226   3.90555
  Beta virt. eigenvalues --    3.96670   3.99161   4.02595   4.12226   4.20955
  Beta virt. eigenvalues --    4.27151   4.29852   4.32906   4.41411   4.89596
  Beta virt. eigenvalues --    5.03547   5.09258   5.36067   5.45645   5.79182
  Beta virt. eigenvalues --   23.80559  23.82911  23.85257  23.88678  23.89796
  Beta virt. eigenvalues --   23.92356  23.97635  23.97660  23.98582  49.87072
  Beta virt. eigenvalues --   49.90513
          Condensed to atoms (all electrons):
              1          2          3          4          5          6
     1  C    6.020355   0.346189   0.420901   0.389643  -0.421143  -0.095182
     2  H    0.346189   0.585991  -0.040611  -0.029293  -0.003131  -0.004067
     3  H    0.420901  -0.040611   0.511430  -0.031130   0.055612   0.013037
     4  H    0.389643  -0.029293  -0.031130   0.576555  -0.011826  -0.015683
     5  C   -0.421143  -0.003131   0.055612  -0.011826  10.148151   0.429771
     6  H   -0.095182  -0.004067   0.013037  -0.015683   0.429771   0.591477
     7  C    0.359951  -0.039233  -0.081519  -0.012587  -3.591863  -0.031589
     8  H   -0.031078  -0.010114  -0.001580   0.002886  -0.032674   0.007914
     9  H    0.041110  -0.006199  -0.003635   0.005443   0.237707  -0.007117
    10  C   -0.188188   0.064620   0.006626  -0.000901   0.344611  -0.035284
    11  H    0.029754  -0.005741   0.002728   0.001472  -0.005553   0.002870
    12  H    0.000700   0.002775  -0.001653   0.000530   0.213588   0.003407
    13  C   -0.081536  -0.002008  -0.007741  -0.002922  -0.446194  -0.012776
    14  H    0.004899  -0.000578   0.000779  -0.000014  -0.053429  -0.001587
    15  H   -0.000675   0.001685  -0.000280   0.000005   0.010175  -0.000421
    16  C   -0.009691   0.003962   0.000686  -0.000523  -0.050474  -0.005143
    17  H   -0.002151   0.000205  -0.000058  -0.000115  -0.008214   0.000815
    18  C   -0.000354   0.000167  -0.000144   0.000032  -0.001602  -0.001191
    19  H   -0.000144   0.000035  -0.000038  -0.000012  -0.001647  -0.000028
    20  H   -0.000003  -0.000005   0.000006   0.000003   0.000304  -0.000053
    21  H    0.000141  -0.000065   0.000008   0.000018   0.002835   0.000051
    22  C   -0.095186   0.000198  -0.047915  -0.009042  -1.379484  -0.064358
    23  H   -0.062969   0.008626   0.001787  -0.007612  -0.168125   0.005549
    24  H    0.035025  -0.008812   0.004108   0.004101   0.201585   0.008174
    25  C    0.000130  -0.000354   0.000025   0.000002   0.029653   0.002834
    26  H    0.000026   0.000024  -0.000014  -0.000015  -0.001060   0.000058
    27  H    0.000169  -0.000029   0.000070   0.000017   0.005269   0.000369
    28  H   -0.000426  -0.000039  -0.000018  -0.000040  -0.025857  -0.001642
    29  O   -0.050894  -0.004182   0.014371  -0.003744   0.023787   0.021935
    30  O   -0.011025   0.003408  -0.001780  -0.000693  -0.002991   0.001141
              7          8          9         10         11         12
     1  C    0.359951  -0.031078   0.041110  -0.188188   0.029754   0.000700
     2  H   -0.039233  -0.010114  -0.006199   0.064620  -0.005741   0.002775
     3  H   -0.081519  -0.001580  -0.003635   0.006626   0.002728  -0.001653
     4  H   -0.012587   0.002886   0.005443  -0.000901   0.001472   0.000530
     5  C   -3.591863  -0.032674   0.237707   0.344611  -0.005553   0.213588
     6  H   -0.031589   0.007914  -0.007117  -0.035284   0.002870   0.003407
     7  C   11.787579   0.234164   0.277740  -2.913267  -0.076805  -0.032398
     8  H    0.234164   0.558130  -0.038562   0.053241  -0.008721  -0.013289
     9  H    0.277740  -0.038562   0.523207  -0.346586   0.009989   0.031531
    10  C   -2.913267   0.053241  -0.346586   9.820969   0.496249   0.159845
    11  H   -0.076805  -0.008721   0.009989   0.496249   0.677911  -0.130669
    12  H   -0.032398  -0.013289   0.031531   0.159845  -0.130669   0.802528
    13  C    0.959214  -0.027799   0.040432  -2.102540  -0.110355  -0.045719
    14  H   -0.020446   0.007126  -0.006997  -0.001819   0.022835  -0.028504
    15  H   -0.033757  -0.011038  -0.005768  -0.015471  -0.019886   0.015021
    16  C   -0.608248  -0.003501  -0.026776   0.754615   0.002295   0.033545
    17  H    0.015681  -0.000419   0.002143  -0.046244   0.009515   0.015391
    18  C   -0.048699  -0.002612   0.001674  -0.218723  -0.007242   0.008301
    19  H    0.007843  -0.000891   0.001430  -0.016702  -0.000033   0.004276
    20  H   -0.006309   0.000270  -0.000322   0.016558   0.000834  -0.002418
    21  H   -0.001538   0.001105  -0.000001  -0.000857  -0.000297  -0.000618
    22  C    0.644518   0.040723  -0.114602   0.251952  -0.007986  -0.119167
    23  H    0.082823   0.001816  -0.037689   0.064812  -0.004683  -0.006731
    24  H   -0.188944   0.005619   0.024223   0.013885   0.016229  -0.019831
    25  C    0.068089   0.002538   0.000329   0.075055  -0.033991   0.013259
    26  H    0.009444   0.000048   0.000638  -0.019758  -0.003812   0.005742
    27  H   -0.013603   0.000294  -0.000309   0.040624   0.005626  -0.000011
    28  H   -0.044014   0.002031  -0.007730   0.120046   0.001238  -0.034901
    29  O    0.000446   0.005553  -0.017094  -0.010038   0.003761  -0.005545
    30  O   -0.170144   0.011127   0.052868   0.182617  -0.002834  -0.024662
             13         14         15         16         17         18
     1  C   -0.081536   0.004899  -0.000675  -0.009691  -0.002151  -0.000354
     2  H   -0.002008  -0.000578   0.001685   0.003962   0.000205   0.000167
     3  H   -0.007741   0.000779  -0.000280   0.000686  -0.000058  -0.000144
     4  H   -0.002922  -0.000014   0.000005  -0.000523  -0.000115   0.000032
     5  C   -0.446194  -0.053429   0.010175  -0.050474  -0.008214  -0.001602
     6  H   -0.012776  -0.001587  -0.000421  -0.005143   0.000815  -0.001191
     7  C    0.959214  -0.020446  -0.033757  -0.608248   0.015681  -0.048699
     8  H   -0.027799   0.007126  -0.011038  -0.003501  -0.000419  -0.002612
     9  H    0.040432  -0.006997  -0.005768  -0.026776   0.002143   0.001674
    10  C   -2.102540  -0.001819  -0.015471   0.754615  -0.046244  -0.218723
    11  H   -0.110355   0.022835  -0.019886   0.002295   0.009515  -0.007242
    12  H   -0.045719  -0.028504   0.015021   0.033545   0.015391   0.008301
    13  C    8.749462   0.392759   0.375881  -1.509491  -0.101198   0.348785
    14  H    0.392759   0.578895  -0.066541   0.062536   0.017001  -0.000565
    15  H    0.375881  -0.066541   0.656514  -0.057834  -0.019676   0.022648
    16  C   -1.509491   0.062536  -0.057834   6.724348   0.569875  -0.118988
    17  H   -0.101198   0.017001  -0.019676   0.569875   0.628652  -0.057010
    18  C    0.348785  -0.000565   0.022648  -0.118988  -0.057010   5.678939
    19  H   -0.061140   0.001364   0.001135   0.075232   0.017917   0.386743
    20  H    0.032080  -0.001732   0.001384  -0.082077  -0.015456   0.391666
    21  H   -0.019396   0.003080   0.001432  -0.043152  -0.013305   0.401643
    22  C    0.144435   0.012797   0.000089  -0.016760   0.000380   0.000567
    23  H    0.003795  -0.000349   0.000395   0.000490  -0.000008  -0.000060
    24  H   -0.037630   0.002518  -0.001305  -0.005596  -0.001137  -0.000359
    25  C    0.095464  -0.074181   0.022112  -0.116505  -0.139422  -0.163831
    26  H    0.059613  -0.005959  -0.002611  -0.099769  -0.003112  -0.000300
    27  H   -0.117241   0.012779  -0.003130   0.087564   0.012712  -0.016585
    28  H   -0.074537   0.005237   0.004020  -0.035189  -0.018661   0.008376
    29  O   -0.005176   0.000750  -0.000486  -0.001720   0.000021  -0.000462
    30  O   -0.056582   0.008023   0.002793   0.008343  -0.000806   0.000653
             19         20         21         22         23         24
     1  C   -0.000144  -0.000003   0.000141  -0.095186  -0.062969   0.035025
     2  H    0.000035  -0.000005  -0.000065   0.000198   0.008626  -0.008812
     3  H   -0.000038   0.000006   0.000008  -0.047915   0.001787   0.004108
     4  H   -0.000012   0.000003   0.000018  -0.009042  -0.007612   0.004101
     5  C   -0.001647   0.000304   0.002835  -1.379484  -0.168125   0.201585
     6  H   -0.000028  -0.000053   0.000051  -0.064358   0.005549   0.008174
     7  C    0.007843  -0.006309  -0.001538   0.644518   0.082823  -0.188944
     8  H   -0.000891   0.000270   0.001105   0.040723   0.001816   0.005619
     9  H    0.001430  -0.000322  -0.000001  -0.114602  -0.037689   0.024223
    10  C   -0.016702   0.016558  -0.000857   0.251952   0.064812   0.013885
    11  H   -0.000033   0.000834  -0.000297  -0.007986  -0.004683   0.016229
    12  H    0.004276  -0.002418  -0.000618  -0.119167  -0.006731  -0.019831
    13  C   -0.061140   0.032080  -0.019396   0.144435   0.003795  -0.037630
    14  H    0.001364  -0.001732   0.003080   0.012797  -0.000349   0.002518
    15  H    0.001135   0.001384   0.001432   0.000089   0.000395  -0.001305
    16  C    0.075232  -0.082077  -0.043152  -0.016760   0.000490  -0.005596
    17  H    0.017917  -0.015456  -0.013305   0.000380  -0.000008  -0.001137
    18  C    0.386743   0.391666   0.401643   0.000567  -0.000060  -0.000359
    19  H    0.557375  -0.034129  -0.046559  -0.000017   0.000036  -0.000386
    20  H   -0.034129   0.561980  -0.018754   0.000087  -0.000012   0.000120
    21  H   -0.046559  -0.018754   0.582734  -0.000342  -0.000012   0.000122
    22  C   -0.000017   0.000087  -0.000342   6.517522   0.421391   0.216201
    23  H    0.000036  -0.000012  -0.000012   0.421391   0.603977  -0.067264
    24  H   -0.000386   0.000120   0.000122   0.216201  -0.067264   0.650124
    25  C   -0.039714  -0.002063   0.025527  -0.005842   0.000091   0.001052
    26  H    0.004029  -0.000904   0.001025  -0.000978   0.000030  -0.000502
    27  H    0.010233   0.001648  -0.002192  -0.002305  -0.000213   0.001181
    28  H   -0.006864   0.004244  -0.002249   0.020091   0.001475  -0.001516
    29  O    0.000046  -0.000012  -0.000011   0.238575  -0.059150  -0.039124
    30  O   -0.000813   0.000135   0.000056   0.017954   0.019924   0.003845
             25         26         27         28         29         30
     1  C    0.000130   0.000026   0.000169  -0.000426  -0.050894  -0.011025
     2  H   -0.000354   0.000024  -0.000029  -0.000039  -0.004182   0.003408
     3  H    0.000025  -0.000014   0.000070  -0.000018   0.014371  -0.001780
     4  H    0.000002  -0.000015   0.000017  -0.000040  -0.003744  -0.000693
     5  C    0.029653  -0.001060   0.005269  -0.025857   0.023787  -0.002991
     6  H    0.002834   0.000058   0.000369  -0.001642   0.021935   0.001141
     7  C    0.068089   0.009444  -0.013603  -0.044014   0.000446  -0.170144
     8  H    0.002538   0.000048   0.000294   0.002031   0.005553   0.011127
     9  H    0.000329   0.000638  -0.000309  -0.007730  -0.017094   0.052868
    10  C    0.075055  -0.019758   0.040624   0.120046  -0.010038   0.182617
    11  H   -0.033991  -0.003812   0.005626   0.001238   0.003761  -0.002834
    12  H    0.013259   0.005742  -0.000011  -0.034901  -0.005545  -0.024662
    13  C    0.095464   0.059613  -0.117241  -0.074537  -0.005176  -0.056582
    14  H   -0.074181  -0.005959   0.012779   0.005237   0.000750   0.008023
    15  H    0.022112  -0.002611  -0.003130   0.004020  -0.000486   0.002793
    16  C   -0.116505  -0.099769   0.087564  -0.035189  -0.001720   0.008343
    17  H   -0.139422  -0.003112   0.012712  -0.018661   0.000021  -0.000806
    18  C   -0.163831  -0.000300  -0.016585   0.008376  -0.000462   0.000653
    19  H   -0.039714   0.004029   0.010233  -0.006864   0.000046  -0.000813
    20  H   -0.002063  -0.000904   0.001648   0.004244  -0.000012   0.000135
    21  H    0.025527   0.001025  -0.002192  -0.002249  -0.000011   0.000056
    22  C   -0.005842  -0.000978  -0.002305   0.020091   0.238575   0.017954
    23  H    0.000091   0.000030  -0.000213   0.001475  -0.059150   0.019924
    24  H    0.001052  -0.000502   0.001181  -0.001516  -0.039124   0.003845
    25  C    5.707781   0.411775   0.348347   0.415495  -0.000599  -0.002188
    26  H    0.411775   0.569624  -0.032091  -0.031532  -0.000014  -0.000454
    27  H    0.348347  -0.032091   0.555585  -0.042302   0.000001   0.001722
    28  H    0.415495  -0.031532  -0.042302   0.609396  -0.000100   0.003254
    29  O   -0.000599  -0.000014   0.000001  -0.000100   7.815742   0.081986
    30  O   -0.002188  -0.000454   0.001722   0.003254   0.081986   8.037350
 Mulliken atomic charges:
              1
     1  C   -0.598348
     2  H    0.136575
     3  H    0.185941
     4  H    0.145446
     5  C    0.502220
     6  H    0.186718
     7  C   -0.532530
     8  H    0.247695
     9  H    0.368921
    10  C   -0.549948
    11  H    0.135301
    12  H    0.155677
    13  C   -0.379941
    14  H    0.129324
    15  H    0.123590
    16  C    0.467948
    17  H    0.136687
    18  C   -0.611466
    19  H    0.141422
    20  H    0.152929
    21  H    0.129572
    22  C   -0.663497
    23  H    0.197860
    24  H    0.184293
    25  C   -0.640868
    26  H    0.140810
    27  H    0.145800
    28  H    0.132714
    29  O   -0.008621
    30  O   -0.162223
 Sum of Mulliken atomic charges =   0.00000
 Mulliken charges with hydrogens summed into heavy atoms:
              1
     1  C   -0.130386
     5  C    0.688938
     7  C   -0.284835
    10  C   -0.258971
    13  C   -0.127027
    16  C    0.604636
    18  C   -0.187543
    22  C   -0.281344
[...]
 3,0.00057358,0.00030534,0.00037430,0.00017139,0.00026941,0.00021414,-0
 .00000102,-0.00002093,-0.00002724,-0.00013601,-0.00000300,0.00010748,0
 .00004325,-0.00001531,-0.00000612,-0.00000160,0.00000377,-0.00000571,0
 .00000211,0.00000605,-0.00000183,0.00000190,-0.00000245,0.00000097,-0.
 00000764,-0.00000275,-0.00000351,-0.00000066,0.00000469,0.00000838,-0.
 08810998,-0.11636232,-0.07762945,0.00072002,0.00086046,0.00019579,0.08
 850176,0.12589168,0.00075647,-0.00052607,0.00085814,-0.00037350,0.0000
 8645,0.00002226,0.00009505,0.00021053,0.00008860,-0.00032680,-0.000091
 79,0.00006732,-0.00248559,-0.00436695,-0.00265051,0.00027626,0.0001446
 0,0.00086018,-0.00120016,0.00078588,-0.00067451,0.00003236,-0.00012341
 ,0.00025786,0.00050319,-0.00195647,-0.00013712,-0.00004564,-0.00059778
 ,-0.00013125,0.00011383,0.00017053,0.00014644,0.00030697,0.00016534,0.
 00040029,0.00006132,0.00014314,0.00011664,-0.00000581,-0.00002011,-0.0
 0003236,-0.00007667,0.00001032,0.00006606,0.00001396,-0.00001944,-0.00
 001415,0.00000059,0.00001153,0.00000076,0.00000542,0.00000784,0.000005
 40,0.00000059,-0.00000187,-0.00000413,0.00000205,-0.00000139,-0.000002
 33,-0.00000280,0.00000458,0.00000522,-0.08453611,-0.07333902,-0.124663
 73,0.00781172,0.00620590,0.01008691,0.10483325,0.07586521,0.14627295,-
 0.00000448,0.00001016,0.00003307,0.00000901,0.00000622,-0.00000800,0.0
 0001381,0.00000075,0.00000413,-0.00002454,-0.00000337,0.00000481,-0.00
 001096,0.00013282,0.00003238,-0.00001846,-0.00003449,0.00003501,0.0000
 0389,-0.00032785,0.00001989,0.00002450,0.00018642,0.00014606,0.0000542
 3,0.00011815,-0.00005629,0.00045310,-0.00022076,-0.00086635,-0.0000783
 9,-0.00033027,0.00007568,-0.00084622,-0.00026751,-0.00037781,-0.004182
 97,-0.02396734,-0.02268606,0.00133019,-0.00029133,0.00085713,-0.005702
 22,-0.00057839,-0.00288643,-0.07836397,-0.00728990,-0.00699005,0.00014
 454,0.00213795,0.00197510,0.00110816,0.01931915,0.01813487,0.00068748,
 -0.00000676,-0.00080617,0.00057045,0.00076519,0.00064631,-0.00368709,0
 .00033789,0.00430729,-0.00007953,-0.00007356,-0.00009855,-0.00002143,0
 .00001588,0.00001296,0.00002241,0.00002605,0.00000751,0.56616885,0.000
 02909,-0.00001905,-0.00003091,-0.00000392,-0.00000019,0.00000292,-0.00
 000141,0.00000265,0.00000349,0.00002035,0.00001065,-0.00000069,0.00008
 881,-0.00004760,0.00007389,-0.00001512,-0.00000073,0.00000337,0.000182
 89,0.00029301,-0.00039906,-0.00002947,-0.00005018,0.00004261,0.0000490
 5,-0.00008275,0.00004435,0.00009434,0.00004133,0.00044157,0.00005256,0
 .00001291,0.00000824,-0.00033285,0.00004775,-0.00015709,-0.00421483,-0
 .00080192,-0.00212365,0.00102426,0.00119231,0.00122504,0.00123399,0.00
 101672,0.00155457,-0.00645576,-0.13568669,-0.04883187,-0.00284096,-0.0
 2430079,-0.02170522,0.00297283,-0.00027453,-0.00344987,-0.00065977,0.0
 0105171,0.00133079,-0.00037640,0.00002076,0.00039016,-0.00095183,0.001
 09685,0.00165543,-0.00000727,0.00009690,-0.00001126,0.00000850,-0.0000
 1306,0.00000215,-0.00000408,0.00000503,-0.00001131,-0.00972178,0.49698
 052,0.00002140,0.00001030,-0.00002362,-0.00000212,-0.00000319,-0.00000
 505,-0.00000597,-0.00000761,-0.00000754,-0.00000079,0.00000293,0.00000
 792,0.00008556,0.00004527,0.00009989,0.00002016,0.00003837,-0.00001150
 ,0.00055273,-0.00044233,-0.00049520,-0.00021684,0.00002124,-0.00012710
 ,-0.00004910,0.00002995,0.00000547,-0.00063005,0.00090274,0.00088588,-
 0.00016773,-0.00011115,0.00011216,0.00024494,-0.00084569,-0.00023576,-
 0.00686641,-0.01219632,-0.01331431,0.00101938,-0.00070958,0.00037550,-
 0.00196543,-0.00013007,-0.00024024,-0.00483274,-0.04620265,-0.11812743
 ,0.00149277,0.01009109,0.00955891,0.00252751,-0.02104699,-0.02294911,-
 0.00106310,-0.00065421,0.00092761,-0.00154274,0.00029722,0.00132139,0.
 00268135,-0.00010921,-0.00287417,0.00007011,-0.00001562,0.00010107,-0.
 00001645,-0.00000261,-0.00001806,0.00001229,-0.00005429,-0.00001795,-0
 .01048902,-0.05046508,0.52038406,-0.00000906,0.00001648,0.00002422,0.0
 0000681,-0.00000751,-0.00000597,0.00000323,0.00000217,-0.00000418,-0.0
 0002924,-0.00000657,0.00000580,-0.00001445,0.00005187,-0.00001684,0.00
 001800,-0.00000741,-0.00000099,0.00015573,-0.00025928,0.00003059,-0.00
 010681,0.00001808,-0.00005326,-0.00000600,0.00013999,-0.00000400,-0.00
 000719,0.00042166,-0.00008516,-0.00002614,-0.00010499,0.00000006,0.000
 29581,-0.00018010,-0.00019117,0.00112246,-0.00099860,0.00027411,0.0001
 2008,0.00007944,0.00016991,-0.00020744,-0.00004935,-0.00018292,-0.0032
 0931,0.00035467,-0.00052834,0.00016770,-0.00059209,0.00003541,0.000661
 16,0.00053951,0.00087340,-0.00003768,-0.00004256,-0.00002171,0.0006491
 0,0.00006608,-0.00021411,0.00027429,-0.00013973,0.00006906,0.00003998,
 -0.00003772,-0.00002173,-0.00002834,0.00000009,0.00000255,0.00002106,-
 0.00002495,-0.00001227,-0.26091697,0.00777582,-0.09777161,0.28341822,-
 0.00000981,0.00001064,0.00001258,0.00000352,0.00000241,-0.00000164,0.0
 0000196,-0.00000176,-0.00000084,-0.00000993,-0.00000425,0.00000074,-0.
 00002886,0.00003483,-0.00000532,0.00000447,-0.00000421,0.00000286,-0.0
 0004159,-0.00010838,0.00012992,0.00001623,0.00005557,0.00002040,-0.000
 02254,0.00004933,-0.00004076,0.00032963,0.00010421,-0.00035637,-0.0000
 1341,-0.00000555,0.00003895,-0.00003616,-0.00001263,0.00015378,0.00084
 478,-0.00375504,-0.00304186,-0.00007519,0.00019847,-0.00027886,-0.0013
 4102,0.00012736,-0.00084614,-0.02352367,0.00060697,-0.01082480,-0.0001
 3983,0.00070889,0.00088850,-0.00075899,0.00078435,0.00084235,0.0002009
 4,-0.00002076,0.00002406,0.00054060,0.00013693,-0.00013723,-0.00007234
 ,-0.00008507,0.00034634,-0.00002119,-0.00006092,-0.00002867,-0.0000037
 2,0.00000949,0.00000341,0.00000192,0.00000425,0.00001141,0.00860413,-0
 .04669605,0.00448942,-0.00855765,0.04913797,-0.00000845,0.00000842,0.0
 0001529,0.00000467,0.00000068,-0.00000128,0.00000315,0.00000133,-0.000
 00077,-0.00001212,-0.00000372,0.00000087,-0.00004446,0.00004019,-0.000
 01735,-0.00000056,-0.00001472,0.00000338,-0.00018473,0.00007273,0.0002
 7812,0.00012562,0.00003868,0.00006209,0.00001744,0.00005784,-0.0000280
 2,0.00064274,-0.00015609,-0.00032282,-0.00006937,-0.00003304,0.0000170
 0,-0.00026807,0.00028963,0.00023544,0.00106424,-0.00410554,-0.00269927
 ,0.00040708,-0.00004253,0.00030906,-0.00146622,-0.00038415,-0.00054950
 ,-0.01974852,0.00211060,-0.01001962,0.00042397,0.00006826,0.00083343,-
 0.00143651,0.00070082,0.00057034,0.00001893,-0.00002273,-0.00010787,0.
 00093600,-0.00032256,-0.00016290,0.00026078,0.00010116,0.00039466,-0.0
 0003237,-0.00003891,-0.00004392,-0.00000592,0.00000692,0.00000874,0.00
 000380,0.00001051,0.00000663,-0.09655726,0.00397330,-0.09036701,0.1072
 8608,-0.00121882,0.09726982,-0.00000359,0.00000121,-0.00000785,-0.0000
 0108,0.00000566,0.00000356,-0.00000225,-0.00000295,-0.00000022,0.00000
 698,-0.00000004,-0.00000109,-0.00000393,-0.00000652,0.00000659,0.00000
 646,0.00000779,-0.00000583,-0.00000085,-0.00000099,-0.00001321,0.00000
 484,-0.00000122,-0.00000792,-0.00004316,-0.00002380,-0.00002490,-0.000
 15955,0.00002910,-0.00001808,0.00007533,0.00016739,0.00000928,-0.00005
 899,-0.00010493,0.00014381,0.00054641,-0.00109069,0.00083427,0.0001737
 3,0.00017639,-0.00020531,0.00001326,0.00018307,0.00001521,-0.00066968,
 -0.00355184,0.00137150,0.00059894,-0.00074225,-0.00048774,-0.00003148,
 0.00072258,-0.00033521,0.00020555,0.00007720,0.00029690,-0.00000282,0.
 00010746,-0.00008786,-0.00009446,-0.00019650,0.00006924,-0.00001963,-0
 .00003190,-0.00000995,0.00001030,0.00000365,-0.00000012,-0.00000857,0.
 00000429,0.00001695,-0.05046544,0.02557111,-0.01261710,-0.00257828,0.0
 2693754,-0.01332522,0.04959365,-0.00000996,0.00000446,0.00000479,0.000
 00277,0.00000638,0.00000397,-0.00000137,-0.00000065,-0.00000266,-0.000
 00441,-0.00000388,0.00000108,-0.00002969,0.00000792,-0.00000612,0.0000
 1433,0.00000017,-0.00001055,0.00000414,-0.00006695,0.00009359,-0.00000
 665,0.00000751,-0.00001375,-0.00006370,0.00004531,-0.00003345,-0.00020
 777,0.00002137,-0.00016447,0.00016116,0.00015434,-0.00007586,-0.000082
 57,-0.00015837,0.00010716,0.00097217,0.00079833,0.00130815,-0.00083214
 ,0.00052686,-0.00072102,0.00008861,0.00050894,-0.00013023,0.00254790,-
 0.02459325,0.01116873,-0.00058241,-0.00274853,-0.00427474,-0.00047888,
 0.00079542,0.00120735,0.00052301,0.00049301,-0.00090830,-0.00000206,-0
 .00001109,-0.00006415,-0.00013285,0.00045504,-0.00018047,-0.00000456,-
 0.00007292,-0.00002476,0.00000125,0.00000653,0.00000084,-0.00000154,0.
 00000489,0.00001502,0.02540876,-0.24504349,0.10196861,0.00043052,-0.00
 030417,0.00008404,-0.02758708,0.27074874,0.00000654,-0.00001191,-0.000
 00182,-0.00000198,-0.00000382,-0.00000213,0.00000069,0.00000214,0.0000
 0275,0.00000466,0.00000341,-0.00000154,0.00000888,-0.00001423,-0.00001
 939,-0.00001113,-0.00000249,0.00000868,-0.00007215,0.00009392,-0.00002
 903,0.00001524,-0.00001420,0.00002274,0.00001765,-0.00005806,0.0000346
 1,0.00003786,0.00004033,0.00006272,0.00007439,-0.00005673,-0.00009672,
 -0.00001899,0.00014551,-0.00007885,0.00069390,-0.00031688,0.00148787,0
 .00001668,0.00055303,-0.00004526,0.00027039,0.00023288,0.00013325,0.00
 260374,-0.02031120,0.00954511,-0.00041093,-0.00400840,-0.00232548,-0.0
 0036871,-0.00046522,0.00166391,-0.00006851,0.00043464,-0.00022768,0.00
 006161,0.00005633,-0.00011415,-0.00016830,0.00025971,0.00016657,0.0000
 2002,0.00005856,0.00004003,0.00000006,-0.00000205,-0.00000436,-0.00000
 471,0.00000411,-0.00001538,-0.01267021,0.10223288,-0.09903197,-0.00064
 848,0.01099560,-0.00661046,0.01463601,-0.11020036,0.10620513,0.0000099
 3,-0.00000470,-0.00001628,-0.00000145,0.00000187,0.00000324,-0.0000032
 7,-0.00000102,-0.00000120,0.00001322,0.00000417,0.00000056,0.00003981,
 -0.00002794,0.00003331,-0.00000384,0.00001044,-0.00000535,0.00007739,-
 0.00001527,-0.00019591,-0.00004150,-0.00001613,-0.00002918,-0.00000552
 ,-0.00004961,0.00000439,-0.00094224,-0.00035132,-0.00035998,0.00002822
 ,0.00006422,0.00007142,-0.00111568,-0.00078034,-0.00086252,0.00007814,
 0.00045232,0.00001761,-0.00004816,-0.00001429,-0.00007563,0.00013452,0
 .00000065,0.00015748,0.00268948,0.00100180,-0.00375773,0.00015793,0.00
 061444,0.00025646,0.00036629,0.00029196,-0.00032001,-0.00006722,-0.000
 10244,-0.00002707,0.00048915,-0.00018035,-0.00014688,0.00030470,-0.000
 21266,0.00011405,0.00000792,0.00001073,0.00002423,0.00001220,0.0000014
 1,-0.00000045,-0.00001520,0.00000383,0.00000598,-0.16619196,-0.0133757
 9,0.12947894,-0.01973067,-0.00288627,0.02196691,0.00283534,-0.00020669
 ,-0.00398160,0.18090911,0.00000871,-0.00001334,-0.00000369,-0.00000393
 ,-0.00000398,-0.00000478,-0.00000006,-0.00000003,0.00000251,0.00000592
 ,0.00000471,-0.00000279,-0.00000505,-0.00001073,-0.00003108,-0.0000140
 1,0.00000357,0.00000957,-0.00009923,0.00002101,0.00002874,0.00004866,-
 0.00000822,0.00000823,0.00005204,-0.00006940,0.00003815,-0.00034697,0.
 00015701,-0.00010041,-0.00002688,-0.00028269,-0.00002857,-0.00047962,0
 .00013549,-0.00017540,0.00021165,0.00071194,0.00068816,-0.00012655,-0.
 00001980,0.00000737,0.00016955,-0.00005208,0.00012088,0.01860320,0.002
 62174,-0.01755281,0.00037352,0.00097370,0.00086980,-0.00141862,-0.0037
 8026,-0.00299272,-0.00002635,0.00019201,-0.00036681,-0.00019443,-0.000
 11099,0.00024174,0.00096911,0.00019366,-0.00142775,0.00002654,0.000073
 17,0.00008277,0.00000217,-0.00000304,-0.00000686,-0.00000405,-0.000002
 60,-0.00001618,-0.01388378,-0.04880652,0.01502241,0.00115028,-0.000923
 41,-0.00119142,-0.02070122,-0.00162367,0.02037409,0.01574122,0.0506408
 0,-0.00000137,-0.00001148,-0.00001347,-0.00000293,0.00001141,0.0000043
 0,0.00000035,-0.00000266,0.00000560,0.00001987,0.00000466,-0.00000607,
 -0.00004597,-0.00003509,-0.00001219,-0.00002050,-0.00000825,0.00000638
 ,-0.00043922,0.00044170,0.00033772,0.00026492,0.00002729,0.00014905,0.
 00003983,-0.00010364,-0.00003659,0.00053820,-0.00078830,-0.00038682,-0
 .00004798,0.00001261,-0.00003789,-0.00104187,0.00046163,0.00065439,0.0
 0101953,0.00045921,0.00000082,-0.00005492,-0.00005848,-0.00004211,-0.0
 0005569,-0.00003275,0.00014742,0.01432578,0.00387672,-0.01492022,-0.00
 022138,-0.00008893,0.00103323,-0.00183992,-0.00440353,-0.00207451,-0.0
 0029077,0.00003269,0.00038748,0.00013788,0.00002551,0.00022277,0.00122
 416,-0.00013719,-0.00091301,-0.00008993,0.00000771,-0.00004389,0.00002
 827,0.00000427,0.00000982,-0.00001686,0.00004234,0.00002777,0.12811301
 ,0.01418618,-0.18582986,-0.00896775,-0.00120880,0.01089202,0.00971380,
 0.00083727,-0.01073705,-0.14234051,-0.01355141,0.20105611,0.00131545,-
 0.00139004,-0.00093304,-0.00000619,-0.00072466,0.00011500,0.00037044,0
 .00039557,0.00091278,0.00076132,0.00026818,0.00008348,-0.00927514,0.01
 451860,-0.00397566,0.00113315,0.00089979,-0.00055399,0.00623282,-0.020
 67099,0.01508173,0.00009660,0.00345911,-0.00333087,-0.03805383,0.04054
 880,0.00049707,-0.00013766,0.00561275,-0.00252986,-0.00205643,-0.00083
 261,-0.00086831,-0.00033558,-0.00065571,0.00003928,0.00081950,-0.00024
 199,-0.00070766,0.00004523,0.00000621,0.00010040,0.00005105,0.00007003
 ,-0.00002142,0.00022380,0.00007911,0.00035076,-0.00000598,-0.00008865,
 -0.00001450,-0.00014885,-0.00003846,-0.00023485,0.00001273,-0.00004814
 ,0.00005479,-0.00019579,-0.00000652,0.00002475,0.00005302,0.00001296,0
 .00000635,-0.09233387,0.00003027,-0.02809013,0.00252513,-0.01780685,0.
 03065883,-0.00394692,0.01400966,-0.02230885,-0.00012357,0.00012209,-0.
 00006228,-0.00016208,-0.00005915,-0.00005855,0.00002540,-0.00006277,0.
 00006287,0.00005327,0.00008629,0.00014586,0.32315276,-0.00029849,0.001
 71994,-0.00003998,0.00018113,0.00017219,0.00035396,-0.00001039,-0.0003
 5295,0.00057571,-0.00026729,-0.00036977,0.00041509,0.01506525,-0.03038
 751,0.03467641,0.00380556,-0.00764396,-0.00141299,-0.00345922,-0.00197
 460,0.00988381,-0.00025950,0.00168087,-0.00134893,0.01855239,0.0095086
 4,-0.00727789,0.00051166,-0.00106794,0.00038785,0.00018761,0.00042088,
 -0.00029100,-0.00000154,-0.00014812,0.00003433,-0.00006865,-0.00007847
 ,0.00032223,0.00012828,0.00010676,-0.00016218,0.00000256,0.00003627,-0
 .00002022,0.00002415,0.00002325,-0.00011177,-0.00004338,0.00005036,-0.
 00002338,0.00003421,-0.00000933,0.00004728,0.00001071,0.00002101,-0.00
 001820,0.00002501,0.00000258,-0.00001326,-0.00000485,0.00000345,0.0000
 0756,0.02698660,-0.08425660,0.04816326,-0.00189470,-0.00310672,0.00459
 750,0.00045542,0.00908716,-0.00242227,-0.00001063,-0.00006432,0.000041
 98,0.00000644,0.00002856,-0.00000082,0.00003005,0.00004790,-0.00003000
 ,0.00000641,-0.00002508,-0.00001442,-0.01285090,0.15445306,-0.00127918
 ,-0.00113015,0.00099378,0.00054224,-0.00004703,0.00059068,0.00091713,0
 .00011298,0.00103875,-0.00024304,-0.00021115,0.00004670,-0.00625590,0.
 01996728,-0.00861989,-0.00078042,0.00111983,0.00186941,0.00233955,0.01
 427358,-0.01227752,0.00017988,-0.00227912,0.00241637,0.01457907,-0.021
 20047,0.00159484,-0.00059481,-0.00353052,0.00115307,0.00125725,0.00024
 061,0.00056271,0.00047935,0.00051449,0.00012957,-0.00022109,0.00040620
 ,0.00029446,-0.00005897,-0.00015929,-0.00009508,-0.00013140,0.00005918
 ,0.00012201,-0.00011715,-0.00010672,-0.00008670,0.00002915,0.00003474,
 0.00002222,0.00005168,0.00005258,0.00007933,-0.00001289,-0.00000472,-0
 .00002535,0.00007464,-0.00000293,-0.00000143,-0.00003158,0.00001400,0.
 00001387,-0.05720569,0.05203716,-0.15439010,0.00075520,0.00872494,-0.0
 1665549,-0.00777049,0.01994523,-0.03737414,0.00011379,-0.00004264,-0.0
 0004498,0.00003995,0.00004293,0.00004466,0.00000707,0.00003342,-0.0000
 3801,-0.00002917,-0.00006034,0.00000969,-0.01276573,-0.11794712,0.2746
 8856,-0.00148494,0.00057765,0.00143379,0.00045016,0.00066117,0.0000860
 8,0.00004628,-0.00065783,-0.00044560,-0.00068020,0.00002621,-0.0003369
 9,0.00744183,-0.00663584,-0.00596634,-0.00316506,0.00271246,0.00110569
 ,-0.01024954,0.06588756,-0.04044321,0.00014793,-0.00573592,0.00561964,
 0.00140414,-0.06725294,0.02060611,0.00146257,-0.00724201,0.00389294,0.
 00221176,0.00107156,0.00120222,0.00047831,0.00080671,0.00042385,-0.000
 84622,-0.00011265,0.00138707,-0.00010124,0.00013113,-0.00033873,-0.000
 14843,0.00013160,0.00004413,-0.00018221,-0.00010197,-0.00042727,0.0000
 0347,0.00014302,-0.00001078,0.00018444,0.00001746,0.00026309,0.0000016
 5,0.00005524,-0.00007445,0.00018642,0.00001278,-0.00004231,-0.00005623
 ,0.00000882,0.00001297,-0.01796177,-0.00022289,0.02890874,0.00376756,-
 0.00101624,0.00061398,0.00355120,0.00125645,-0.00346926,0.00012757,-0.
 00023443,0.00009233,0.00011603,0.00011563,0.00005694,0.00004756,0.0001
 4248,-0.00010549,-0.00003993,-0.00011812,-0.00009389,-0.19008977,-0.04
 684390,0.06613157,0.20337666,0.00037614,-0.00054644,-0.00034196,-0.000
 02534,-0.00016904,-0.00011467,-0.00023151,0.00007638,0.00007029,0.0003
 3500,0.00006960,-0.00006421,-0.00481599,0.00855663,0.00129982,0.001228
 87,-0.00080298,-0.00048068,0.02320309,-0.10496197,0.04627424,-0.000426
 96,0.00278136,-0.00308996,-0.03681995,0.02248929,-0.01295593,-0.003056
 28,0.00574319,-0.00403171,-0.00070623,-0.00084939,0.00050877,0.0002506
 3,0.00008784,0.00047531,0.00072400,-0.00018090,-0.00036802,0.00056113,
 0.00029500,-0.00014833,-0.00004278,-0.00002570,0.00004083,0.00018130,0
 .00030942,-0.00008835,-0.00016063,-0.00003619,-0.00003650,-0.00001018,
 -0.00002752,-0.00005463,0.00001818,-0.00000209,0.00001645,-0.00004921,
 -0.00000347,-0.00000197,0.00001772,-0.00000085,0.00000400,-0.02033513,
 -0.01028411,0.00972537,0.00082962,-0.00090980,0.00274214,0.00124927,0.
 00108707,-0.00034421,-0.00006180,0.00001877,0.00003508,-0.00004460,-0.
 00001802,-0.00003007,0.00001746,-0.00000616,0.00000841,0.00001936,0.00
 000702,0.00001374,-0.02464197,-0.04787754,0.02914304,0.06241680,0.1251
 8062,0.00030470,0.00022157,-0.00117859,-0.00001608,-0.00011285,0.00022
 123,0.00011671,0.00027945,0.00042426,0.00012042,-0.00000374,0.00016700
 ,-0.00238460,-0.00036428,0.00181835,0.00125075,-0.00091913,-0.00002625
 ,-0.00030640,0.00064847,0.00817580,-0.00019440,0.00247959,-0.00083784,
 0.00124970,0.01790695,-0.01847956,0.00045139,0.00209231,-0.00096879,-0
 .00064616,-0.00033395,-0.00023310,0.00011598,-0.00018421,0.00038166,0.
 00039758,0.00009934,-0.00055309,-0.00010742,-0.00018740,0.00011902,-0.
 00000938,0.00002658,0.00006175,0.00002663,-0.00007723,0.00021640,0.000
 04585,-0.00003736,0.00002773,-0.00007890,0.00000799,-0.00011142,-0.000
 00513,-0.00003752,0.00002217,-0.00008298,-0.00000828,0.00002105,0.0000
 1417,0.00001958,0.00000940,0.04987446,0.01106371,-0.02763249,-0.000551
 68,0.00593156,-0.00614678,0.00228892,-0.00197233,0.00642810,-0.0000267
 8,0.00005769,-0.00005903,-0.00008063,-0.00001316,-0.00001076,0.0000234
 4,-0.00002313,0.00000590,0.00001488,0.00001859,0.00010911,0.02832175,0
 .03162747,-0.05606199,-0.08012682,-0.06820629,0.09409076\\0.00000125,0
 .00000218,0.00000086,0.00000123,0.00000090,0.00000431,-0.00000363,-0.0
 0000014,0.00000691,0.00000026,-0.00000056,0.00000747,0.00000685,-0.000
 00120,0.00001660,-0.00000379,-0.00000136,0.00000547,0.00001419,-0.0000
 1952,-0.00001679,-0.00000675,-0.00000537,0.00000956,-0.00000141,-0.000
 01845,-0.00000827,0.00000310,-0.00000471,0.00001305,0.00000296,-0.0000
 0057,-0.00000394,0.00000543,-0.00000192,0.00000040,-0.00000003,-0.0000
 0003,-0.00000558,-0.00000347,-0.00000067,0.00000091,-0.00000073,0.0000
 0046,0.00000038,-0.00000533,0.00000201,-0.00000012,-0.00000032,0.00000
 100,-0.00000216,-0.00000376,-0.00000426,-0.00000174,0.00000010,-0.0000
 0199,-0.00000775,0.00000014,0.00000039,-0.00000506,-0.00000076,-0.0000
 0196,-0.00000557,0.00000738,-0.00000894,0.00002325,0.00000221,0.000000
 68,0.00000455,-0.00000082,0.00000658,0.00000013,0.00000622,-0.00000046
 ,-0.00000619,0.00000259,0.00000046,-0.00000601,0.00000205,0.00000002,-
 0.00000505,0.00000175,0.00000045,-0.00000397,-0.00000511,0.00002901,-0
 .00003522,-0.00002178,0.00002795,0.00001957\\\@


 THOSE WHO ARE UNABLE TO LEARN FROM PAST MEETINGS
 ARE CONDEMNED TO REPEAT THEM.
 Job cpu time:  0 days  5 hours 43 minutes 27.9 seconds.
 File lengths (MBytes):  RWF=    713 Int=      0 D2E=      0 Chk=     12 Scr=      1
 Normal termination of Gaussian 09 at Thu Feb 13 02:17:13 2014.
