 Entering Gaussian System, Link 0=g09
 Initial command:
 /usr/caen/gaussian-09revc/g09/l1.exe /scratch/avioli_flux/hetanjin/scratch/Gau-90409.inp -scrdir=/scratch/avioli_flux/hetanjin/scratch/
 Entering Link 1 = /usr/caen/gaussian-09revc/g09/l1.exe PID=     90410.
  
 Copyright (c) 1988,1990,1992,1993,1995,1998,2003,2009,2011,
            Gaussian, Inc.  All Rights Reserved.
  
 This is part of the Gaussian(R) 09 program.  It is based on
 the Gaussian(R) 03 system (copyright 2003, Gaussian, Inc.),
 the Gaussian(R) 98 system (copyright 1998, Gaussian, Inc.),
 the Gaussian(R) 94 system (copyright 1995, Gaussian, Inc.),
 the Gaussian 92(TM) system (copyright 1992, Gaussian, Inc.),
 the Gaussian 90(TM) system (copyright 1990, Gaussian, Inc.),
 the Gaussian 88(TM) system (copyright 1988, Gaussian, Inc.),
 the Gaussian 86(TM) system (copyright 1986, Carnegie Mellon
 University), and the Gaussian 82(TM) system (copyright 1983,
 Carnegie Mellon University). Gaussian is a federally registered
 trademark of Gaussian, Inc.
  
 This software contains proprietary and confidential information,
 including trade secrets, belonging to Gaussian, Inc.
  
 This software is provided under written license and may be
 used, copied, transmitted, or stored only in accord with that
 written license.
  
 The following legend is applicable only to US Government
 contracts under FAR:
  
                    RESTRICTED RIGHTS LEGEND
  
 Use, reproduction and disclosure by the US Government is
 subject to restrictions as set forth in subparagraphs (a)
 and (c) of the Commercial Computer Software - Restricted
 Rights clause in FAR 52.227-19.
  
 Gaussian, Inc.
 340 Quinnipiac St., Bldg. 40, Wallingford CT 06492
  
  
 ---------------------------------------------------------------
 Warning -- This program may not be used in any manner that
 competes with the business of Gaussian, Inc. or will provide
 assistance to any competitor of Gaussian, Inc.  The licensee
 of this program is prohibited from giving any competitor of
 Gaussian, Inc. access to this program.  By using this program,
 the user acknowledges that Gaussian, Inc. is engaged in the
 business of creating and licensing software in the field of
 computational chemistry and represents and warrants to the
 licensee that it is not a competitor of Gaussian, Inc. and that
 it will not use this program in any manner prohibited above.
 ---------------------------------------------------------------
  

 Cite this work as:
 Gaussian 09, Revision C.01,
 M. J. Frisch, G. W. Trucks, H. B. Schlegel, G. E. Scuseria, 
 M. A. Robb, J. R. Cheeseman, G. Scalmani, V. Barone, B. Mennucci, 
 G. A. Petersson, H. Nakatsuji, M. Caricato, X. Li, H. P. Hratchian, 
 A. F. Izmaylov, J. Bloino, G. Zheng, J. L. Sonnenberg, M. Hada, 
 M. Ehara, K. Toyota, R. Fukuda, J. Hasegawa, M. Ishida, T. Nakajima, 
 Y. Honda, O. Kitao, H. Nakai, T. Vreven, J. A. Montgomery, Jr., 
 J. E. Peralta, F. Ogliaro, M. Bearpark, J. J. Heyd, E. Brothers, 
 K. N. Kudin, V. N. Staroverov, T. Keith, R. Kobayashi, J. Normand, 
 K. Raghavachari, A. Rendell, J. C. Burant, S. S. Iyengar, J. Tomasi, 
 M. Cossi, N. Rega, J. M. Millam, M. Klene, J. E. Knox, J. B. Cross, 
 V. Bakken, C. Adamo, J. Jaramillo, R. Gomperts, R. E. Stratmann, 
 O. Yazyev, A. J. Austin, R. Cammi, C. Pomelli, J. W. Ochterski, 
 R. L. Martin, K. Morokuma, V. G. Zakrzewski, G. A. Voth, 
 P. Salvador, J. J. Dannenberg, S. Dapprich, A. D. Daniels, 
 O. Farkas, J. B. Foresman, J. V. Ortiz, J. Cioslowski, 
 and D. J. Fox, Gaussian, Inc., Wallingford CT, 2010.
 
 ******************************************
 Gaussian 09:  EM64L-G09RevC.01 23-Sep-2011
                15-Feb-2014 
 ******************************************
 %mem=30GB
 %nprocshared=8
 Will use up to    8 processors via shared memory.
 %chk=TS_1_1f.chk
 ----------------------------
 #p ub3lyp/6-311++g(d,p) freq
 ----------------------------
 1/10=4,30=1,38=1/1,3;
 2/12=2,17=6,18=5,40=1/2;
 3/5=4,6=6,7=1111,11=2,16=1,25=1,30=1,71=2,74=-5,116=2/1,2,3;
 4//1;
 5/5=2,38=5,98=1/2;
 8/6=4,10=90,11=11/1;
 11/6=1,8=1,9=11,15=111,16=1/1,2,10;
 10/6=1/2;
 6/7=2,8=2,9=2,10=2,18=1,28=1/1;
 7/8=1,10=1,25=1/1,2,3,16;
 1/10=4,30=1/3;
 99//99;
 Leave Link    1 at Sat Feb 15 18:06:53 2014, MaxMem= 4026531840 cpu:       0.5
 (Enter /usr/caen/gaussian-09revc/g09/l101.exe)
 --------------------------------------------------------------
 TS_1_1f using B3LYP/6-311++g(d,p) to calc. freq TS | reactants
 --------------------------------------------------------------
 Charge =  0 Multiplicity = 2
 Symbolic Z-Matrix:
 C                     2.20453  -0.83423   1.46043 
 H                     2.36331  -1.90947   1.58754 
 H                     1.2443   -0.57161   1.8993 
 H                     2.97547  -0.3171    2.03944 
 C                     2.31512  -0.45311  -0.02911 
 H                     3.34242  -0.72022  -0.31483 
 C                     1.40998  -1.29438  -0.96994 
 H                     1.86673  -1.29645  -1.96629 
 H                     1.45922  -2.33191  -0.61956 
 C                    -0.07011  -0.90085  -1.16383 
 H                    -0.5429   -1.69078  -1.77119 
 H                    -0.1238    0.0037   -1.77615 
 C                    -0.89654  -0.70691   0.08532 
 H                    -0.3647    0.47804   0.56308 
 H                    -0.64856  -1.39536   0.8974 
 C                    -2.39386  -0.47713  -0.04357 
 H                    -2.8137   -1.4165   -0.44496 
 C                    -3.03499  -0.24016   1.3327 
 H                    -2.6726    0.69313   1.77451 
 H                    -4.12302  -0.17022   1.24928 
 H                    -2.80348  -1.05393   2.02644 
 C                     2.27119   1.06645  -0.27616 
 H                     2.84288   1.58619   0.50144 
 H                     2.71236   1.30591  -1.2491 
 C                    -2.76256   0.64819  -1.02361 
 H                    -3.84881   0.76023  -1.08089 
 H                    -2.33975   1.60189  -0.695 
 H                    -2.39793   0.44844  -2.03389 
 O                     0.97737   1.67566  -0.38898 
 O                     0.22462   1.46795   0.7865 
 
 NAtoms=     30 NQM=        0 NQMF=       0 NMMI=     30 NMMIF=      0
                NMic=       0 NMicF=      0.
                    Isotopes and Nuclear Properties:
 (Nuclear quadrupole moments (NQMom) in fm**2, nuclear magnetic moments (NMagM)
  in nuclear magnetons)

  Atom         1           2           3           4           5           6           7           8           9          10
 IAtWgt=          12           1           1           1          12           1          12           1           1          12
 AtmWgt=  12.0000000   1.0078250   1.0078250   1.0078250  12.0000000   1.0078250  12.0000000   1.0078250   1.0078250  12.0000000
 NucSpn=           0           1           1           1           0           1           0           1           1           0
 AtZEff=   0.0000000   0.0000000   0.0000000   0.0000000   0.0000000   0.0000000   0.0000000   0.0000000   0.0000000   0.0000000
 NQMom=    0.0000000   0.0000000   0.0000000   0.0000000   0.0000000   0.0000000   0.0000000   0.0000000   0.0000000   0.0000000
 NMagM=    0.0000000   2.7928460   2.7928460   2.7928460   0.0000000   2.7928460   0.0000000   2.7928460   2.7928460   0.0000000

  Atom        11          12          13          14          15          16          17          18          19          20
 IAtWgt=           1           1          12           1           1          12           1          12           1           1
 AtmWgt=   1.0078250   1.0078250  12.0000000   1.0078250   1.0078250  12.0000000   1.0078250  12.0000000   1.0078250   1.0078250
 NucSpn=           1           1           0           1           1           0           1           0           1           1
 AtZEff=   0.0000000   0.0000000   0.0000000   0.0000000   0.0000000   0.0000000   0.0000000   0.0000000   0.0000000   0.0000000
 NQMom=    0.0000000   0.0000000   0.0000000   0.0000000   0.0000000   0.0000000   0.0000000   0.0000000   0.0000000   0.0000000
 NMagM=    2.7928460   2.7928460   0.0000000   2.7928460   2.7928460   0.0000000   2.7928460   0.0000000   2.7928460   2.7928460

  Atom        21          22          23          24          25          26          27          28          29          30
 IAtWgt=           1          12           1           1          12           1           1           1          16          16
 AtmWgt=   1.0078250  12.0000000   1.0078250   1.0078250  12.0000000   1.0078250   1.0078250   1.0078250  15.9949146  15.9949146
 NucSpn=           1           0           1           1           0           1           1           1           0           0
 AtZEff=   0.0000000   0.0000000   0.0000000   0.0000000   0.0000000   0.0000000   0.0000000   0.0000000   0.0000000   0.0000000
 NQMom=    0.0000000   0.0000000   0.0000000   0.0000000   0.0000000   0.0000000   0.0000000   0.0000000   0.0000000   0.0000000
 NMagM=    2.7928460   0.0000000   2.7928460   2.7928460   0.0000000   2.7928460   2.7928460   2.7928460   0.0000000   0.0000000
 Leave Link  101 at Sat Feb 15 18:06:53 2014, MaxMem= 4026531840 cpu:       0.6
 (Enter /usr/caen/gaussian-09revc/g09/l103.exe)

 GradGradGradGradGradGradGradGradGradGradGradGradGradGradGradGradGradGrad
 Berny optimization.
 Initialization pass.
 Trust Radius=3.00D-01 FncErr=1.00D-07 GrdErr=1.00D-07
 Number of steps in this run=      2 maximum allowed number of steps=      2.
 GradGradGradGradGradGradGradGradGradGradGradGradGradGradGradGradGradGrad

 Leave Link  103 at Sat Feb 15 18:06:53 2014, MaxMem= 4026531840 cpu:       0.2
 (Enter /usr/caen/gaussian-09revc/g09/l202.exe)
                          Input orientation:                          
 ---------------------------------------------------------------------
 Center     Atomic      Atomic             Coordinates (Angstroms)
 Number     Number       Type             X           Y           Z
 ---------------------------------------------------------------------
      1          6           0        2.204528   -0.834234    1.460432
      2          1           0        2.363305   -1.909474    1.587542
      3          1           0        1.244296   -0.571611    1.899299
      4          1           0        2.975473   -0.317099    2.039442
      5          6           0        2.315123   -0.453110   -0.029112
      6          1           0        3.342423   -0.720218   -0.314828
      7          6           0        1.409976   -1.294380   -0.969943
      8          1           0        1.866725   -1.296446   -1.966291
      9          1           0        1.459219   -2.331908   -0.619560
     10          6           0       -0.070109   -0.900850   -1.163829
     11          1           0       -0.542901   -1.690782   -1.771189
     12          1           0       -0.123802    0.003695   -1.776148
     13          6           0       -0.896539   -0.706907    0.085316
     14          1           0       -0.364703    0.478044    0.563080
     15          1           0       -0.648564   -1.395355    0.897397
     16          6           0       -2.393861   -0.477133   -0.043573
     17          1           0       -2.813697   -1.416503   -0.444962
     18          6           0       -3.034986   -0.240158    1.332697
     19          1           0       -2.672602    0.693126    1.774513
     20          1           0       -4.123016   -0.170219    1.249282
     21          1           0       -2.803475   -1.053928    2.026441
     22          6           0        2.271193    1.066449   -0.276160
     23          1           0        2.842879    1.586190    0.501441
     24          1           0        2.712355    1.305906   -1.249099
     25          6           0       -2.762557    0.648185   -1.023610
     26          1           0       -3.848814    0.760228   -1.080886
     27          1           0       -2.339746    1.601886   -0.694996
     28          1           0       -2.397933    0.448442   -2.033892
     29          8           0        0.977373    1.675658   -0.388981
     30          8           0        0.224623    1.467949    0.786495
 ---------------------------------------------------------------------
                    Distance matrix (angstroms):
                    1          2          3          4          5
     1  C    0.000000
     2  H    1.094307   0.000000
     3  H    1.087943   1.771793   0.000000
     4  H    1.094092   1.764829   1.755389   0.000000
     5  C    1.541502   2.176439   2.208955   2.175655   0.000000
     6  H    2.111718   2.447859   3.053945   2.416556   1.099239
     7  C    2.598032   2.797840   2.963511   3.530192   1.553122
     8  H    3.474217   3.640347   3.981908   4.270169   2.159847
     9  H    2.669247   2.422214   3.080501   3.664529   2.147343
    10  C    3.473493   3.809051   3.349450   4.458394   2.679064
    11  H    4.327287   4.446902   4.233096   5.365340   3.568608
    12  H    4.074150   4.600036   3.963784   4.926169   3.034660
    13  C    3.394668   3.785424   2.809273   4.354657   3.223706
    14  H    3.021301   3.767200   2.340114   3.737469   2.898138
    15  H    2.961756   3.132407   2.294620   3.949753   3.244948
    16  C    4.851261   5.229031   4.125514   5.761450   4.709067
    17  H    5.399273   5.583497   4.762007   6.394954   5.235060
    18  C    5.274633   5.656245   4.329336   6.052357   5.524811
    19  H    5.120339   5.671758   4.117915   5.743822   5.426262
    20  H    6.365792   6.723971   5.421409   7.143842   6.569928
    21  H    5.044673   5.255493   4.078388   5.825747   5.548543
    22  C    2.575421   3.512547   2.910392   2.787872   1.540137
    23  H    2.680598   3.691785   3.027471   2.450620   2.172270
    24  H    3.489935   4.301981   3.948756   3.676667   2.177223
    25  C    5.748040   6.295570   5.107462   6.575641   5.290058
    26  H    6.756001   7.268992   6.049386   7.580763   6.369658
    27  H    5.588468   6.297485   4.929484   6.277835   5.131687
    28  H    5.919308   6.429925   5.456769   6.786133   5.200465
    29  O    3.350492   4.322109   3.218337   3.722999   2.539830
    30  O    3.110347   4.077085   2.537296   3.510477   2.953959
                    6          7          8          9         10
     6  H    0.000000
     7  C    2.119714   0.000000
     8  H    2.288461   1.096053   0.000000
     9  H    2.497371   1.096201   1.746977   0.000000
    10  C    3.521194   1.543732   2.133487   2.164024   0.000000
    11  H    4.261305   2.147757   2.449462   2.397035   1.102910
    12  H    3.830695   2.165050   2.385104   3.049376   1.093627
    13  C    4.257827   2.603595   3.491744   2.947384   1.510286
    14  H    3.993662   2.939580   3.811273   3.552627   2.229428
    15  H    4.225314   2.781140   3.812764   2.760623   2.197225
    16  C    5.747836   3.999404   4.745599   4.314879   2.614256
    17  H    6.196738   4.257926   4.922927   4.373358   2.882697
    18  C    6.604252   5.115782   6.002153   5.327720   3.931876
    19  H    6.522531   5.305626   6.209469   5.652819   4.236459
    20  H    7.647334   6.066523   6.890957   6.271110   4.773152
    21  H    6.585208   5.175838   6.149105   5.177366   4.203873
    22  C    2.083557   2.607018   2.933157   3.510848   3.184324
    23  H    2.497070   3.537777   3.918184   4.303795   4.176600
    24  H    2.318410   2.921576   2.828726   3.898764   3.552344
    25  C    6.296482   4.602876   5.108864   5.183397   3.109413
    26  H    7.381900   5.646999   6.138504   6.160304   4.128519
    27  H    6.150101   4.745984   5.264116   5.469238   3.410974
    28  H    6.105132   4.320832   4.608309   4.960676   2.827784
    29  O    3.367370   3.057088   3.480267   4.043010   2.887213
    30  O    3.965055   3.481465   4.232754   4.235579   3.082505
                   11         12         13         14         15
    11  H    0.000000
    12  H    1.745543   0.000000
    13  C    2.130653   2.137084   0.000000
    14  H    3.191296   2.398964   1.383914   0.000000
    15  H    2.686967   3.062770   1.093128   1.924050   0.000000
    16  C    2.807785   2.895890   1.520323   2.323332   2.185090
    17  H    2.643978   3.320324   2.111922   3.256229   2.547582
    18  C    4.236615   4.266072   2.519280   2.870285   2.686815
    19  H    4.773955   4.424804   2.822743   2.615383   3.037732
    20  H    4.924691   5.017687   3.471744   3.875053   3.700892
    21  H    4.465173   4.770629   2.743136   3.230476   2.456614
    22  C    4.213853   3.019174   3.648285   2.828161   3.995334
    23  H    5.231338   4.061145   4.406212   3.394167   4.608315
    24  H    4.455268   3.165015   4.342372   3.665738   4.816641
    25  C    3.310062   2.818636   2.558909   2.880319   3.512163
    26  H    4.172892   3.864123   3.496919   3.862807   4.336098
    27  H    3.902372   2.938284   2.832359   2.597416   3.792000
    28  H    2.843666   2.331502   2.842544   3.298358   3.879734
    29  O    3.943938   2.435627   3.068081   2.035158   3.705342
    30  O    4.136233   2.971965   2.545320   1.173512   2.995541
                   16         17         18         19         20
    16  C    0.000000
    17  H    1.104442   0.000000
    18  C    1.536658   2.143088   0.000000
    19  H    2.180055   3.065373   1.094323   0.000000
    20  H    2.180745   2.477499   1.093462   1.767748   0.000000
    21  H    2.187563   2.497879   1.094121   1.769970   1.768080
    22  C    4.919296   5.661241   5.696594   5.365234   6.688963
    23  H    5.654891   6.473693   6.210944   5.730515   7.222737
    24  H    5.541296   6.212519   6.487520   6.206085   7.425843
    25  C    1.537124   2.144851   2.532894   2.799929   2.772485
    26  H    2.173469   2.492794   2.736507   3.088896   2.524005
    27  H    2.179358   3.065586   2.826309   2.652379   3.178148
    28  H    2.195011   2.485071   3.494843   3.826129   3.760038
    29  O    4.014852   4.892525   4.767971   4.355272   5.666139
    30  O    3.365831   4.366685   3.720352   3.157601   4.669018
                   21         22         23         24         25
    21  H    0.000000
    22  C    5.962401   0.000000
    23  H    6.416943   1.096184   0.000000
    24  H    6.835376   1.094794   1.777635   0.000000
    25  C    3.493089   5.106101   5.884433   5.518886   0.000000
    26  H    3.746916   6.180278   6.925657   6.585970   1.093521
    27  H    3.830746   4.660780   5.318958   5.091008   1.093756
    28  H    4.348320   5.027155   5.931989   5.240819   1.092482
    29  O    5.251639   1.434515   2.069050   1.971467   3.930080
    30  O    4.131187   2.340702   2.636380   3.218495   3.587720
                   26         27         28         29         30
    26  H    0.000000
    27  H    1.770476   0.000000
    28  H    1.763657   1.768180   0.000000
    29  O    4.960728   3.332021   3.950251   0.000000
    30  O    4.536614   2.964581   3.983940   1.411212   0.000000
 Stoichiometry    C9H19O2(2)
 Framework group  C1[X(C9H19O2)]
 Deg. of freedom    84
 Full point group                 C1      NOp   1
 Largest Abelian subgroup         C1      NOp   1
 Largest concise Abelian subgroup C1      NOp   1
                         Standard orientation:                         
 ---------------------------------------------------------------------
 Center     Atomic      Atomic             Coordinates (Angstroms)
 Number     Number       Type             X           Y           Z
 ---------------------------------------------------------------------
      1          6           0        2.204528   -0.834234    1.460432
      2          1           0        2.363305   -1.909474    1.587542
      3          1           0        1.244296   -0.571611    1.899299
      4          1           0        2.975473   -0.317099    2.039442
      5          6           0        2.315123   -0.453110   -0.029112
      6          1           0        3.342423   -0.720218   -0.314828
      7          6           0        1.409976   -1.294380   -0.969943
      8          1           0        1.866725   -1.296446   -1.966291
      9          1           0        1.459219   -2.331908   -0.619560
     10          6           0       -0.070109   -0.900850   -1.163829
     11          1           0       -0.542901   -1.690782   -1.771189
     12          1           0       -0.123802    0.003695   -1.776148
     13          6           0       -0.896539   -0.706907    0.085316
     14          1           0       -0.364703    0.478044    0.563080
     15          1           0       -0.648564   -1.395355    0.897397
     16          6           0       -2.393861   -0.477133   -0.043573
     17          1           0       -2.813697   -1.416503   -0.444962
     18          6           0       -3.034986   -0.240158    1.332697
     19          1           0       -2.672602    0.693126    1.774513
     20          1           0       -4.123016   -0.170219    1.249282
     21          1           0       -2.803475   -1.053928    2.026441
     22          6           0        2.271193    1.066449   -0.276160
     23          1           0        2.842879    1.586190    0.501441
     24          1           0        2.712355    1.305906   -1.249099
     25          6           0       -2.762557    0.648185   -1.023610
     26          1           0       -3.848814    0.760228   -1.080886
     27          1           0       -2.339746    1.601886   -0.694996
     28          1           0       -2.397933    0.448442   -2.033892
     29          8           0        0.977373    1.675658   -0.388981
     30          8           0        0.224623    1.467949    0.786495
 ---------------------------------------------------------------------
 Rotational constants (GHZ):      1.6027317      0.6648548      0.6339497
 Leave Link  202 at Sat Feb 15 18:06:53 2014, MaxMem= 4026531840 cpu:       0.3
 (Enter /usr/caen/gaussian-09revc/g09/l301.exe)
 Standard basis: 6-311++G(d,p) (5D, 7F)
 Ernie: Thresh=  0.10000D-02 Tol=  0.10000D-05 Strict=F.
 There are   375 symmetry adapted basis functions of A   symmetry.
 Integral buffers will be    131072 words long.
 Raffenetti 2 integral format.
 Two-electron integral symmetry is turned on.
   375 basis functions,   567 primitive gaussians,   386 cartesian basis functions
    45 alpha electrons       44 beta electrons
       nuclear repulsion energy       697.8121170249 Hartrees.
 IExCor=  402 DFT=T Ex+Corr=B3LYP ExCW=0 ScaHFX=  0.200000
 ScaDFX=  0.800000  0.720000  1.000000  0.810000 ScalE2=  1.000000  1.000000
 IRadAn=      0 IRanWt=     -1 IRanGd=            0 ICorTp=0
 NAtoms=   30 NActive=   30 NUniq=   30 SFac= 1.00D+00 NAtFMM=   60 NAOKFM=F Big=F
 Leave Link  301 at Sat Feb 15 18:06:54 2014, MaxMem= 4026531840 cpu:       0.7
 (Enter /usr/caen/gaussian-09revc/g09/l302.exe)
 NPDir=0 NMtPBC=     1 NCelOv=     1 NCel=       1 NClECP=     1 NCelD=      1
         NCelK=      1 NCelE2=     1 NClLst=     1 CellRange=     0.0.
 One-electron integrals computed using PRISM.
 NBasis=   375 RedAO= T  NBF=   375
 NBsUse=   375 1.00D-06 NBFU=   375
 Precomputing XC quadrature grid using
 IXCGrd= 2 IRadAn=           0 IRanWt=          -1 IRanGd=           0 AccXCQ= 0.00D+00.
 NRdTot=    1948 NPtTot=      248370 NUsed=      262409 NTot=      262441
 NSgBfM=   386   386   386   386   386 NAtAll=    30    30.
 Leave Link  302 at Sat Feb 15 18:06:55 2014, MaxMem= 4026531840 cpu:       6.7
 (Enter /usr/caen/gaussian-09revc/g09/l303.exe)
 DipDrv:  MaxL=1.
 Leave Link  303 at Sat Feb 15 18:06:56 2014, MaxMem= 4026531840 cpu:       1.7
 (Enter /usr/caen/gaussian-09revc/g09/l401.exe)
 Harris functional with IExCor=  402 diagonalized for initial guess.
 ExpMin= 3.60D-02 ExpMax= 8.59D+03 ExpMxC= 1.30D+03 IAcc=3 IRadAn=         5 AccDes= 0.00D+00
 HarFok:  IExCor=  402 AccDes= 0.00D+00 IRadAn=         5 IDoV= 1
 ScaDFX=  1.000000  1.000000  1.000000  1.000000
 FoFCou: FMM=F IPFlag=           0 FMFlag=      100000 FMFlg1=           0
         NFxFlg=           0 DoJE=T BraDBF=F KetDBF=T FulRan=T
         Omega=  0.000000  0.000000  1.000000  0.000000  0.000000 ICntrl=     500 IOpCl=  0
         NMat0=    1 NMatS0=    1 NMatT0=    0 NMatD0=    1 NMtDS0=    0 NMtDT0=    0
         I1Cent=           4 NGrid=           0.
 Petite list used in FoFCou.
 Harris En= -504.887769167059    
 Initial guess orbital symmetries:
 Alpha Orbitals:
       Occupied  (A) (A) (A) (A) (A) (A) (A) (A) (A) (A) (A) (A)
                 (A) (A) (A) (A) (A) (A) (A) (A) (A) (A) (A) (A)
                 (A) (A) (A) (A) (A) (A) (A) (A) (A) (A) (A) (A)
                 (A) (A) (A) (A) (A) (A) (A) (A) (A)
       Virtual   (A) (A) (A) (A) (A) (A) (A) (A) (A) (A) (A) (A)
                 (A) (A) (A) (A) (A) (A) (A) (A) (A) (A) (A) (A)
                 (A) (A) (A) (A) (A) (A) (A) (A) (A) (A) (A) (A)
                 (A) (A) (A) (A) (A) (A) (A) (A) (A) (A) (A) (A)
                 (A) (A) (A) (A) (A) (A) (A) (A) (A) (A) (A) (A)
                 (A) (A) (A) (A) (A) (A) (A) (A) (A) (A) (A) (A)
                 (A) (A) (A) (A) (A) (A) (A) (A) (A) (A) (A) (A)
                 (A) (A) (A) (A) (A) (A) (A) (A) (A) (A) (A) (A)
                 (A) (A) (A) (A) (A) (A) (A) (A) (A) (A) (A) (A)
                 (A) (A) (A) (A) (A) (A) (A) (A) (A) (A) (A) (A)
                 (A) (A) (A) (A) (A) (A) (A) (A) (A) (A) (A) (A)
                 (A) (A) (A) (A) (A) (A) (A) (A) (A) (A) (A) (A)
                 (A) (A) (A) (A) (A) (A) (A) (A) (A) (A) (A) (A)
                 (A) (A) (A) (A) (A) (A) (A) (A) (A) (A) (A) (A)
                 (A) (A) (A) (A) (A) (A) (A) (A) (A) (A) (A) (A)
                 (A) (A) (A) (A) (A) (A) (A) (A) (A) (A) (A) (A)
                 (A) (A) (A) (A) (A) (A) (A) (A) (A) (A) (A) (A)
                 (A) (A) (A) (A) (A) (A) (A) (A) (A) (A) (A) (A)
                 (A) (A) (A) (A) (A) (A) (A) (A) (A) (A) (A) (A)
                 (A) (A) (A) (A) (A) (A) (A) (A) (A) (A) (A) (A)
                 (A) (A) (A) (A) (A) (A) (A) (A) (A) (A) (A) (A)
                 (A) (A) (A) (A) (A) (A) (A) (A) (A) (A) (A) (A)
                 (A) (A) (A) (A) (A) (A) (A) (A) (A) (A) (A) (A)
                 (A) (A) (A) (A) (A) (A) (A) (A) (A) (A) (A) (A)
                 (A) (A) (A) (A) (A) (A) (A) (A) (A) (A) (A) (A)
                 (A) (A) (A) (A) (A) (A) (A) (A) (A) (A) (A) (A)
                 (A) (A) (A) (A) (A) (A) (A) (A) (A) (A) (A) (A)
                 (A) (A) (A) (A) (A) (A)
 Beta  Orbitals:
       Occupied  (A) (A) (A) (A) (A) (A) (A) (A) (A) (A) (A) (A)
                 (A) (A) (A) (A) (A) (A) (A) (A) (A) (A) (A) (A)
                 (A) (A) (A) (A) (A) (A) (A) (A) (A) (A) (A) (A)
                 (A) (A) (A) (A) (A) (A) (A) (A)
       Virtual   (A) (A) (A) (A) (A) (A) (A) (A) (A) (A) (A) (A)
                 (A) (A) (A) (A) (A) (A) (A) (A) (A) (A) (A) (A)
                 (A) (A) (A) (A) (A) (A) (A) (A) (A) (A) (A) (A)
                 (A) (A) (A) (A) (A) (A) (A) (A) (A) (A) (A) (A)
                 (A) (A) (A) (A) (A) (A) (A) (A) (A) (A) (A) (A)
                 (A) (A) (A) (A) (A) (A) (A) (A) (A) (A) (A) (A)
                 (A) (A) (A) (A) (A) (A) (A) (A) (A) (A) (A) (A)
                 (A) (A) (A) (A) (A) (A) (A) (A) (A) (A) (A) (A)
                 (A) (A) (A) (A) (A) (A) (A) (A) (A) (A) (A) (A)
                 (A) (A) (A) (A) (A) (A) (A) (A) (A) (A) (A) (A)
                 (A) (A) (A) (A) (A) (A) (A) (A) (A) (A) (A) (A)
                 (A) (A) (A) (A) (A) (A) (A) (A) (A) (A) (A) (A)
                 (A) (A) (A) (A) (A) (A) (A) (A) (A) (A) (A) (A)
                 (A) (A) (A) (A) (A) (A) (A) (A) (A) (A) (A) (A)
                 (A) (A) (A) (A) (A) (A) (A) (A) (A) (A) (A) (A)
                 (A) (A) (A) (A) (A) (A) (A) (A) (A) (A) (A) (A)
                 (A) (A) (A) (A) (A) (A) (A) (A) (A) (A) (A) (A)
                 (A) (A) (A) (A) (A) (A) (A) (A) (A) (A) (A) (A)
                 (A) (A) (A) (A) (A) (A) (A) (A) (A) (A) (A) (A)
                 (A) (A) (A) (A) (A) (A) (A) (A) (A) (A) (A) (A)
                 (A) (A) (A) (A) (A) (A) (A) (A) (A) (A) (A) (A)
                 (A) (A) (A) (A) (A) (A) (A) (A) (A) (A) (A) (A)
                 (A) (A) (A) (A) (A) (A) (A) (A) (A) (A) (A) (A)
                 (A) (A) (A) (A) (A) (A) (A) (A) (A) (A) (A) (A)
                 (A) (A) (A) (A) (A) (A) (A) (A) (A) (A) (A) (A)
                 (A) (A) (A) (A) (A) (A) (A) (A) (A) (A) (A) (A)
                 (A) (A) (A) (A) (A) (A) (A) (A) (A) (A) (A) (A)
                 (A) (A) (A) (A) (A) (A) (A)
 The electronic state of the initial guess is 2-A.
 Initial guess <Sx>= 0.0000 <Sy>= 0.0000 <Sz>= 0.5000 <S**2>= 0.7500 S= 0.5000
 Leave Link  401 at Sat Feb 15 18:07:00 2014, MaxMem= 4026531840 cpu:      31.0
 (Enter /usr/caen/gaussian-09revc/g09/l502.exe)
 UHF open shell SCF:
 Requested convergence on RMS density matrix=1.00D-08 within 128 cycles.
 Requested convergence on MAX density matrix=1.00D-06.
 Requested convergence on             energy=1.00D-06.
 No special actions if energy rises.
 Using DIIS extrapolation, IDIIS=  1040.
 Integral symmetry usage will be decided dynamically.
       262126 words used for storage of precomputed grid.
 IEnd=      733260 IEndB=      733260 NGot=  4026531840 MDV=  4025964603
 LenX=  4025964603 LenY=  4025815166
 Fock matrices will be formed incrementally for  20 cycles.

 Cycle   1  Pass 1  IDiag  1:
 FoFCou: FMM=F IPFlag=           0 FMFlag=      100000 FMFlg1=           0
         NFxFlg=           0 DoJE=F BraDBF=F KetDBF=F FulRan=T
         Omega=  0.000000  0.000000  1.000000  0.000000  0.000000 ICntrl=       0 IOpCl=  1
         NMat0=    1 NMatS0=    1 NMatT0=    0 NMatD0=    1 NMtDS0=    0 NMtDT0=    0
         I1Cent=           0 NGrid=           0.
 Symmetry not used in FoFCou.
 E= -504.463700760875    
 DIIS: error= 2.28D-02 at cycle   1 NSaved=   1.
 NSaved= 1 IEnMin= 1 EnMin= -504.463700760875     IErMin= 1 ErrMin= 2.28D-02
 ErrMax= 2.28D-02 EMaxC= 1.00D-01 BMatC= 1.47D+00 BMatP= 1.47D+00
 IDIUse=3 WtCom= 7.72D-01 WtEn= 2.28D-01
 Coeff-Com:  0.100D+01
 Coeff-En:   0.100D+01
 Coeff:      0.100D+01
 Gap=     0.176 Goal=   None    Shift=    0.000
 Gap=     0.206 Goal=   None    Shift=    0.000
 GapD=    0.176 DampG=1.000 DampE=0.500 DampFc=0.5000 IDamp=-1.
 Damping current iteration by 5.00D-01
 RMSDP=1.42D-02 MaxDP=1.95D+00              OVMax= 2.33D-01

 Cycle   2  Pass 1  IDiag  1:
 RMSU=  3.09D-03    CP:  7.68D-01
 E= -504.605757598900     Delta-E=       -0.142056838024 Rises=F Damp=T
 DIIS: error= 6.05D-03 at cycle   2 NSaved=   2.
 NSaved= 2 IEnMin= 2 EnMin= -504.605757598900     IErMin= 2 ErrMin= 6.05D-03
 ErrMax= 6.05D-03 EMaxC= 1.00D-01 BMatC= 1.30D-01 BMatP= 1.47D+00
 IDIUse=3 WtCom= 9.39D-01 WtEn= 6.05D-02
 Coeff-Com:  0.108D+00 0.892D+00
 Coeff-En:   0.217D+00 0.783D+00
 Coeff:      0.115D+00 0.885D+00
 Gap=     0.226 Goal=   None    Shift=    0.000
 Gap=     0.221 Goal=   None    Shift=    0.000
 RMSDP=4.54D-03 MaxDP=3.85D-01 DE=-1.42D-01 OVMax= 2.67D-01

 Cycle   3  Pass 1  IDiag  1:
 RMSU=  2.61D-03    CP:  8.54D-01  7.39D-01
 E= -504.809726751213     Delta-E=       -0.203969152313 Rises=F Damp=F
 DIIS: error= 8.43D-03 at cycle   3 NSaved=   3.
 NSaved= 3 IEnMin= 3 EnMin= -504.809726751213     IErMin= 2 ErrMin= 6.05D-03
 ErrMax= 8.43D-03 EMaxC= 1.00D-01 BMatC= 1.07D-01 BMatP= 1.30D-01
 IDIUse=3 WtCom= 9.16D-01 WtEn= 8.43D-02
 Coeff-Com:  0.148D-02 0.471D+00 0.527D+00
 Coeff-En:   0.000D+00 0.000D+00 0.100D+01
 Coeff:      0.136D-02 0.432D+00 0.567D+00
 Gap=     0.214 Goal=   None    Shift=    0.000
 Gap=     0.163 Goal=   None    Shift=    0.000
 RMSDP=2.73D-03 MaxDP=2.89D-01 DE=-2.04D-01 OVMax= 1.30D-01

 Cycle   4  Pass 1  IDiag  1:
 RMSU=  9.07D-04    CP:  7.86D-01  8.19D-01  5.77D-01
 E= -504.824862919305     Delta-E=       -0.015136168092 Rises=F Damp=F
 DIIS: error= 5.56D-03 at cycle   4 NSaved=   4.
 NSaved= 4 IEnMin= 4 EnMin= -504.824862919305     IErMin= 4 ErrMin= 5.56D-03
 ErrMax= 5.56D-03 EMaxC= 1.00D-01 BMatC= 4.35D-02 BMatP= 1.07D-01
 IDIUse=3 WtCom= 9.44D-01 WtEn= 5.56D-02
 Coeff-Com: -0.145D-01 0.141D+00 0.400D+00 0.473D+00
 Coeff-En:   0.000D+00 0.000D+00 0.296D+00 0.704D+00
 Coeff:     -0.137D-01 0.133D+00 0.394D+00 0.486D+00
 Gap=     0.203 Goal=   None    Shift=    0.000
 Gap=     0.156 Goal=   None    Shift=    0.000
 RMSDP=8.09D-04 MaxDP=1.00D-01 DE=-1.51D-02 OVMax= 4.00D-02

 Cycle   5  Pass 1  IDiag  1:
 RMSU=  4.48D-04    CP:  7.72D-01  8.38D-01  6.47D-01  8.30D-01
 E= -504.833209171663     Delta-E=       -0.008346252358 Rises=F Damp=F
 DIIS: error= 1.06D-03 at cycle   5 NSaved=   5.
 NSaved= 5 IEnMin= 5 EnMin= -504.833209171663     IErMin= 5 ErrMin= 1.06D-03
 ErrMax= 1.06D-03 EMaxC= 1.00D-01 BMatC= 1.71D-03 BMatP= 4.35D-02
 IDIUse=3 WtCom= 9.89D-01 WtEn= 1.06D-02
 Coeff-Com: -0.684D-02 0.220D-01 0.158D+00 0.234D+00 0.592D+00
 Coeff-En:   0.000D+00 0.000D+00 0.000D+00 0.000D+00 0.100D+01
 Coeff:     -0.677D-02 0.218D-01 0.156D+00 0.232D+00 0.597D+00
 Gap=     0.204 Goal=   None    Shift=    0.000
 Gap=     0.157 Goal=   None    Shift=    0.000
 RMSDP=3.64D-04 MaxDP=4.63D-02 DE=-8.35D-03 OVMax= 5.68D-03

 Cycle   6  Pass 1  IDiag  1:
 RMSU=  1.16D-04    CP:  7.80D-01  8.28D-01  6.93D-01  7.84D-01  7.39D-01
 E= -504.833485128387     Delta-E=       -0.000275956724 Rises=F Damp=F
 DIIS: error= 1.09D-03 at cycle   6 NSaved=   6.
 NSaved= 6 IEnMin= 6 EnMin= -504.833485128387     IErMin= 5 ErrMin= 1.06D-03
 ErrMax= 1.09D-03 EMaxC= 1.00D-01 BMatC= 6.47D-04 BMatP= 1.71D-03
 IDIUse=3 WtCom= 9.89D-01 WtEn= 1.06D-02
 Coeff-Com: -0.160D-02-0.724D-02 0.458D-01 0.702D-01 0.392D+00 0.501D+00
 Coeff-En:   0.000D+00 0.000D+00 0.000D+00 0.000D+00 0.184D+00 0.816D+00
 Coeff:     -0.158D-02-0.716D-02 0.453D-01 0.695D-01 0.390D+00 0.504D+00
 Gap=     0.205 Goal=   None    Shift=    0.000
 Gap=     0.158 Goal=   None    Shift=    0.000
 RMSDP=9.64D-05 MaxDP=1.25D-02 DE=-2.76D-04 OVMax= 6.29D-03

 Cycle   7  Pass 1  IDiag  1:
 RMSU=  5.47D-05    CP:  7.79D-01  8.25D-01  6.92D-01  7.92D-01  7.67D-01
                    CP:  7.90D-01
 E= -504.833603251345     Delta-E=       -0.000118122958 Rises=F Damp=F
 DIIS: error= 2.49D-04 at cycle   7 NSaved=   7.
 NSaved= 7 IEnMin= 7 EnMin= -504.833603251345     IErMin= 7 ErrMin= 2.49D-04
 ErrMax= 2.49D-04 EMaxC= 1.00D-01 BMatC= 8.51D-05 BMatP= 6.47D-04
 IDIUse=3 WtCom= 9.98D-01 WtEn= 2.49D-03
 Coeff-Com:  0.129D-02-0.851D-02-0.122D-01-0.300D-01 0.422D-01 0.275D+00
 Coeff-Com:  0.732D+00
 Coeff-En:   0.000D+00 0.000D+00 0.000D+00 0.000D+00 0.000D+00 0.000D+00
 Coeff-En:   0.100D+01
 Coeff:      0.128D-02-0.849D-02-0.122D-01-0.299D-01 0.421D-01 0.275D+00
 Coeff:      0.733D+00
 Gap=     0.204 Goal=   None    Shift=    0.000
 Gap=     0.158 Goal=   None    Shift=    0.000
 RMSDP=5.64D-05 MaxDP=7.50D-03 DE=-1.18D-04 OVMax= 1.94D-03

 Cycle   8  Pass 1  IDiag  1:
 RMSU=  3.06D-05    CP:  7.80D-01  8.26D-01  6.95D-01  7.92D-01  7.83D-01
                    CP:  9.19D-01  7.99D-01
 E= -504.833627316254     Delta-E=       -0.000024064909 Rises=F Damp=F
 DIIS: error= 1.08D-04 at cycle   8 NSaved=   8.
 NSaved= 8 IEnMin= 8 EnMin= -504.833627316254     IErMin= 8 ErrMin= 1.08D-04
 ErrMax= 1.08D-04 EMaxC= 1.00D-01 BMatC= 1.31D-05 BMatP= 8.51D-05
 IDIUse=3 WtCom= 9.99D-01 WtEn= 1.08D-03
 Coeff-Com:  0.107D-02-0.191D-02-0.141D-01-0.321D-01-0.719D-01 0.193D-01
 Coeff-Com:  0.353D+00 0.747D+00
 Coeff-En:   0.000D+00 0.000D+00 0.000D+00 0.000D+00 0.000D+00 0.000D+00
 Coeff-En:   0.000D+00 0.100D+01
 Coeff:      0.107D-02-0.191D-02-0.141D-01-0.321D-01-0.718D-01 0.192D-01
 Coeff:      0.353D+00 0.747D+00
 Gap=     0.205 Goal=   None    Shift=    0.000
 Gap=     0.159 Goal=   None    Shift=    0.000
 RMSDP=2.06D-05 MaxDP=1.93D-03 DE=-2.41D-05 OVMax= 1.56D-03

 Cycle   9  Pass 1  IDiag  1:
 RMSU=  6.91D-06    CP:  7.80D-01  8.25D-01  6.97D-01  7.90D-01  7.88D-01
                    CP:  9.85D-01  9.28D-01  9.93D-01
 E= -504.833631658154     Delta-E=       -0.000004341900 Rises=F Damp=F
 DIIS: error= 2.06D-05 at cycle   9 NSaved=   9.
 NSaved= 9 IEnMin= 9 EnMin= -504.833631658154     IErMin= 9 ErrMin= 2.06D-05
 ErrMax= 2.06D-05 EMaxC= 1.00D-01 BMatC= 1.34D-06 BMatP= 1.31D-05
 IDIUse=1 WtCom= 1.00D+00 WtEn= 0.00D+00
 Coeff-Com:  0.227D-03 0.237D-03-0.379D-02-0.935D-02-0.340D-01-0.252D-01
 Coeff-Com:  0.523D-01 0.309D+00 0.710D+00
 Coeff:      0.227D-03 0.237D-03-0.379D-02-0.935D-02-0.340D-01-0.252D-01
 Coeff:      0.523D-01 0.309D+00 0.710D+00
 Gap=     0.205 Goal=   None    Shift=    0.000
 Gap=     0.159 Goal=   None    Shift=    0.000
 RMSDP=7.64D-06 MaxDP=5.59D-04 DE=-4.34D-06 OVMax= 3.46D-04

 Cycle  10  Pass 1  IDiag  1:
 RMSU=  3.55D-06    CP:  7.80D-01  8.25D-01  6.97D-01  7.89D-01  7.87D-01
                    CP:  9.99D-01  9.56D-01  1.01D+00  7.47D-01
 E= -504.833632077412     Delta-E=       -0.000000419258 Rises=F Damp=F
 DIIS: error= 9.95D-06 at cycle  10 NSaved=  10.
 NSaved=10 IEnMin=10 EnMin= -504.833632077412     IErMin=10 ErrMin= 9.95D-06
 ErrMax= 9.95D-06 EMaxC= 1.00D-01 BMatC= 1.18D-07 BMatP= 1.34D-06
 IDIUse=1 WtCom= 1.00D+00 WtEn= 0.00D+00
 Coeff-Com: -0.114D-03 0.337D-03 0.116D-02 0.221D-02 0.240D-02-0.682D-02
 Coeff-Com: -0.421D-01-0.319D-01 0.164D+00 0.911D+00
 Coeff:     -0.114D-03 0.337D-03 0.116D-02 0.221D-02 0.240D-02-0.682D-02
 Coeff:     -0.421D-01-0.319D-01 0.164D+00 0.911D+00
 Gap=     0.205 Goal=   None    Shift=    0.000
 Gap=     0.159 Goal=   None    Shift=    0.000
 RMSDP=2.61D-06 MaxDP=2.18D-04 DE=-4.19D-07 OVMax= 8.69D-05

 Cycle  11  Pass 1  IDiag  1:
 RMSU=  1.30D-06    CP:  7.80D-01  8.25D-01  6.97D-01  7.89D-01  7.87D-01
                    CP:  1.00D+00  9.53D-01  1.02D+00  8.31D-01  8.94D-01
 E= -504.833632133344     Delta-E=       -0.000000055932 Rises=F Damp=F
 DIIS: error= 5.85D-06 at cycle  11 NSaved=  11.
 NSaved=11 IEnMin=11 EnMin= -504.833632133344     IErMin=11 ErrMin= 5.85D-06
 ErrMax= 5.85D-06 EMaxC= 1.00D-01 BMatC= 2.29D-08 BMatP= 1.18D-07
 IDIUse=1 WtCom= 1.00D+00 WtEn= 0.00D+00
 Coeff-Com: -0.610D-04 0.845D-04 0.878D-03 0.190D-02 0.510D-02 0.137D-02
 Coeff-Com: -0.186D-01-0.477D-01-0.364D-01 0.298D+00 0.795D+00
 Coeff:     -0.610D-04 0.845D-04 0.878D-03 0.190D-02 0.510D-02 0.137D-02
 Coeff:     -0.186D-01-0.477D-01-0.364D-01 0.298D+00 0.795D+00
 Gap=     0.205 Goal=   None    Shift=    0.000
 Gap=     0.159 Goal=   None    Shift=    0.000
 RMSDP=1.24D-06 MaxDP=1.40D-04 DE=-5.59D-08 OVMax= 3.16D-05

 Cycle  12  Pass 1  IDiag  1:
 RMSU=  4.76D-07    CP:  7.80D-01  8.25D-01  6.97D-01  7.89D-01  7.87D-01
                    CP:  1.00D+00  9.49D-01  1.03D+00  8.37D-01  9.79D-01
                    CP:  8.66D-01
 E= -504.833632142898     Delta-E=       -0.000000009554 Rises=F Damp=F
 DIIS: error= 2.77D-06 at cycle  12 NSaved=  12.
 NSaved=12 IEnMin=12 EnMin= -504.833632142898     IErMin=12 ErrMin= 2.77D-06
 ErrMax= 2.77D-06 EMaxC= 1.00D-01 BMatC= 6.13D-09 BMatP= 2.29D-08
 IDIUse=1 WtCom= 1.00D+00 WtEn= 0.00D+00
 Coeff-Com:  0.411D-05-0.442D-04 0.927D-04 0.313D-03 0.152D-02 0.178D-02
 Coeff-Com:  0.147D-02-0.134D-01-0.534D-01-0.918D-01 0.346D+00 0.807D+00
 Coeff:      0.411D-05-0.442D-04 0.927D-04 0.313D-03 0.152D-02 0.178D-02
 Coeff:      0.147D-02-0.134D-01-0.534D-01-0.918D-01 0.346D+00 0.807D+00
 Gap=     0.205 Goal=   None    Shift=    0.000
 Gap=     0.159 Goal=   None    Shift=    0.000
 RMSDP=5.37D-07 MaxDP=3.89D-05 DE=-9.55D-09 OVMax= 2.21D-05

 Cycle  13  Pass 1  IDiag  1:
 RMSU=  1.89D-07    CP:  7.80D-01  8.25D-01  6.97D-01  7.89D-01  7.87D-01
                    CP:  1.00D+00  9.51D-01  1.03D+00  8.41D-01  9.98D-01
                    CP:  9.53D-01  1.01D+00
 E= -504.833632145739     Delta-E=       -0.000000002840 Rises=F Damp=F
 DIIS: error= 9.26D-07 at cycle  13 NSaved=  13.
 NSaved=13 IEnMin=13 EnMin= -504.833632145739     IErMin=13 ErrMin= 9.26D-07
 ErrMax= 9.26D-07 EMaxC= 1.00D-01 BMatC= 7.83D-10 BMatP= 6.13D-09
 IDIUse=1 WtCom= 1.00D+00 WtEn= 0.00D+00
 Coeff-Com:  0.111D-04-0.309D-04-0.109D-03-0.176D-03-0.229D-03 0.515D-03
 Coeff-Com:  0.364D-02 0.269D-02-0.144D-01-0.830D-01 0.149D-02 0.297D+00
 Coeff-Com:  0.792D+00
 Coeff:      0.111D-04-0.309D-04-0.109D-03-0.176D-03-0.229D-03 0.515D-03
 Coeff:      0.364D-02 0.269D-02-0.144D-01-0.830D-01 0.149D-02 0.297D+00
 Coeff:      0.792D+00
 Gap=     0.205 Goal=   None    Shift=    0.000
 Gap=     0.159 Goal=   None    Shift=    0.000
 RMSDP=1.84D-07 MaxDP=1.72D-05 DE=-2.84D-09 OVMax= 9.29D-06

 Cycle  14  Pass 1  IDiag  1:
 RMSU=  7.74D-08    CP:  7.80D-01  8.25D-01  6.97D-01  7.89D-01  7.87D-01
                    CP:  1.00D+00  9.50D-01  1.03D+00  8.38D-01  9.98D-01
                    CP:  9.96D-01  1.08D+00  9.83D-01
 E= -504.833632146132     Delta-E=       -0.000000000394 Rises=F Damp=F
 DIIS: error= 3.15D-07 at cycle  14 NSaved=  14.
 NSaved=14 IEnMin=14 EnMin= -504.833632146132     IErMin=14 ErrMin= 3.15D-07
 ErrMax= 3.15D-07 EMaxC= 1.00D-01 BMatC= 8.53D-11 BMatP= 7.83D-10
 IDIUse=1 WtCom= 1.00D+00 WtEn= 0.00D+00
 Coeff-Com:  0.153D-05-0.184D-05-0.405D-04-0.799D-04-0.227D-03-0.107D-03
 Coeff-Com:  0.673D-03 0.219D-02 0.320D-02-0.949D-02-0.448D-01-0.285D-01
 Coeff-Com:  0.199D+00 0.879D+00
 Coeff:      0.153D-05-0.184D-05-0.405D-04-0.799D-04-0.227D-03-0.107D-03
 Coeff:      0.673D-03 0.219D-02 0.320D-02-0.949D-02-0.448D-01-0.285D-01
 Coeff:      0.199D+00 0.879D+00
 Gap=     0.205 Goal=   None    Shift=    0.000
 Gap=     0.159 Goal=   None    Shift=    0.000
 RMSDP=7.17D-08 MaxDP=5.21D-06 DE=-3.94D-10 OVMax= 3.98D-06

 Cycle  15  Pass 1  IDiag  1:
 RMSU=  3.07D-08    CP:  7.80D-01  8.25D-01  6.97D-01  7.89D-01  7.87D-01
                    CP:  1.00D+00  9.50D-01  1.03D+00  8.39D-01  9.94D-01
                    CP:  9.98D-01  1.11D+00  1.08D+00  1.00D+00
 E= -504.833632146179     Delta-E=       -0.000000000046 Rises=F Damp=F
 DIIS: error= 9.91D-08 at cycle  15 NSaved=  15.
 NSaved=15 IEnMin=15 EnMin= -504.833632146179     IErMin=15 ErrMin= 9.91D-08
 ErrMax= 9.91D-08 EMaxC= 1.00D-01 BMatC= 2.46D-11 BMatP= 8.53D-11
 IDIUse=1 WtCom= 1.00D+00 WtEn= 0.00D+00
 Coeff-Com: -0.146D-05 0.477D-05 0.137D-05-0.373D-05-0.550D-04-0.160D-03
 Coeff-Com: -0.353D-03 0.442D-03 0.401D-02 0.107D-01-0.193D-01-0.656D-01
 Coeff-Com: -0.609D-01 0.382D+00 0.749D+00
 Coeff:     -0.146D-05 0.477D-05 0.137D-05-0.373D-05-0.550D-04-0.160D-03
 Coeff:     -0.353D-03 0.442D-03 0.401D-02 0.107D-01-0.193D-01-0.656D-01
 Coeff:     -0.609D-01 0.382D+00 0.749D+00
 Gap=     0.205 Goal=   None    Shift=    0.000
 Gap=     0.159 Goal=   None    Shift=    0.000
 RMSDP=3.76D-08 MaxDP=4.51D-06 DE=-4.62D-11 OVMax= 1.64D-06

 Cycle  16  Pass 1  IDiag  1:
 RMSU=  1.38D-08    CP:  7.80D-01  8.25D-01  6.97D-01  7.89D-01  7.87D-01
                    CP:  1.00D+00  9.50D-01  1.03D+00  8.39D-01  9.95D-01
                    CP:  9.95D-01  1.12D+00  1.12D+00  1.11D+00  8.02D-01
 E= -504.833632146180     Delta-E=       -0.000000000002 Rises=F Damp=F
 DIIS: error= 3.69D-08 at cycle  16 NSaved=  16.
 NSaved=16 IEnMin=16 EnMin= -504.833632146180     IErMin=16 ErrMin= 3.69D-08
 ErrMax= 3.69D-08 EMaxC= 1.00D-01 BMatC= 3.13D-12 BMatP= 2.46D-11
 IDIUse=1 WtCom= 1.00D+00 WtEn= 0.00D+00
 Coeff-Com: -0.757D-06 0.213D-05 0.694D-05 0.117D-04 0.168D-04-0.502D-04
 Coeff-Com: -0.242D-03-0.196D-03 0.103D-02 0.562D-02-0.141D-03-0.198D-01
 Coeff-Com: -0.547D-01-0.259D-02 0.276D+00 0.795D+00
 Coeff:     -0.757D-06 0.213D-05 0.694D-05 0.117D-04 0.168D-04-0.502D-04
 Coeff:     -0.242D-03-0.196D-03 0.103D-02 0.562D-02-0.141D-03-0.198D-01
 Coeff:     -0.547D-01-0.259D-02 0.276D+00 0.795D+00
 Gap=     0.205 Goal=   None    Shift=    0.000
 Gap=     0.159 Goal=   None    Shift=    0.000
 RMSDP=1.30D-08 MaxDP=6.56D-07 DE=-1.59D-12 OVMax= 7.67D-07

 Cycle  17  Pass 1  IDiag  1:
 RMSU=  5.41D-09    CP:  7.80D-01  8.25D-01  6.97D-01  7.89D-01  7.87D-01
                    CP:  1.00D+00  9.50D-01  1.03D+00  8.39D-01  9.95D-01
                    CP:  9.97D-01  1.12D+00  1.13D+00  1.15D+00  8.71D-01
                    CP:  9.05D-01
 E= -504.833632146185     Delta-E=       -0.000000000005 Rises=F Damp=F
 DIIS: error= 1.15D-08 at cycle  17 NSaved=  17.
 NSaved=17 IEnMin=17 EnMin= -504.833632146185     IErMin=17 ErrMin= 1.15D-08
 ErrMax= 1.15D-08 EMaxC= 1.00D-01 BMatC= 3.88D-13 BMatP= 3.13D-12
 IDIUse=1 WtCom= 1.00D+00 WtEn= 0.00D+00
 Coeff-Com: -0.170D-08-0.537D-07 0.173D-05 0.453D-05 0.125D-04 0.407D-05
 Coeff-Com: -0.192D-04-0.117D-03-0.218D-03 0.207D-03 0.257D-02 0.329D-02
 Coeff-Com: -0.802D-02-0.541D-01-0.229D-01 0.246D+00 0.833D+00
 Coeff:     -0.170D-08-0.537D-07 0.173D-05 0.453D-05 0.125D-04 0.407D-05
 Coeff:     -0.192D-04-0.117D-03-0.218D-03 0.207D-03 0.257D-02 0.329D-02
 Coeff:     -0.802D-02-0.541D-01-0.229D-01 0.246D+00 0.833D+00
 Gap=     0.205 Goal=   None    Shift=    0.000
 Gap=     0.159 Goal=   None    Shift=    0.000
 RMSDP=5.14D-09 MaxDP=5.30D-07 DE=-4.77D-12 OVMax= 2.47D-07

 SCF Done:  E(UB3LYP) =  -504.833632146     A.U. after   17 cycles
             Convg  =    0.5142D-08             -V/T =  2.0045
 <Sx>= 0.0000 <Sy>= 0.0000 <Sz>= 0.5000 <S**2>= 0.7565 S= 0.5033
 <L.S>= 0.000000000000E+00
 KE= 5.025734142030D+02 PE=-2.571615599297D+03 EE= 8.663964359235D+02
 Annihilation of the first spin contaminant:
 S**2 before annihilation     0.7565,   after     0.7500
 Leave Link  502 at Sat Feb 15 18:11:57 2014, MaxMem= 4026531840 cpu:    2368.5
 (Enter /usr/caen/gaussian-09revc/g09/l801.exe)
 Range of M.O.s used for correlation:     1   375
 NBasis=   375 NAE=    45 NBE=    44 NFC=     0 NFV=     0
 NROrb=    375 NOA=    45 NOB=    44 NVA=   330 NVB=   331

 **** Warning!!: The largest alpha MO coefficient is  0.98963645D+02


 **** Warning!!: The largest beta MO coefficient is  0.92401417D+02

 Leave Link  801 at Sat Feb 15 18:11:58 2014, MaxMem= 4026531840 cpu:       0.6
 (Enter /usr/caen/gaussian-09revc/g09/l1101.exe)
 Using compressed storage, NAtomX=    30.
 Will process  31 centers per pass.
 Leave Link 1101 at Sat Feb 15 18:12:00 2014, MaxMem= 4026531840 cpu:      15.9
 (Enter /usr/caen/gaussian-09revc/g09/l1102.exe)
 Symmetrizing basis deriv contribution to polar:
 IMax=3 JMax=2 DiffMx= 0.00D+00
 Leave Link 1102 at Sat Feb 15 18:12:01 2014, MaxMem= 4026531840 cpu:       1.6
 (Enter /usr/caen/gaussian-09revc/g09/l1110.exe)
 Forming Gx(P) for the SCF density, NAtomX=    30.
 Integral derivatives from FoFDir/FoFCou, PRISM(SPDF).
 Do as many integral derivatives as possible in FoFDir.
 G2DrvN: MDV=    4026531496.
 G2DrvN: will do    31 centers at a time, making    1 passes doing MaxLOS=2.
 Calling FoFCou, ICntrl=  3107 FMM=F I1Cent=   0 AccDes= 0.00D+00.
 FoFCou: FMM=F IPFlag=           0 FMFlag=      100000 FMFlg1=           0
         NFxFlg=           0 DoJE=F BraDBF=F KetDBF=F FulRan=T
         Omega=  0.000000  0.000000  1.000000  0.000000  0.000000 ICntrl=    3107 IOpCl=  1
         NMat0=    1 NMatS0=    1 NMatT0=    0 NMatD0=    1 NMtDS0=    0 NMtDT0=    0
         I1Cent=           0 NGrid=           0.
 Symmetry not used in FoFCou.
 FoFDir/FoFCou used for L=0 through L=2.
 End of G2Drv Frequency-dependent properties file   721 does not exist.
 End of G2Drv Frequency-dependent properties file   722 does not exist.
 Leave Link 1110 at Sat Feb 15 18:16:52 2014, MaxMem= 4026531840 cpu:    2318.9
 (Enter /usr/caen/gaussian-09revc/g09/l1002.exe)
 Minotr:  UHF open shell wavefunction.
          IDoAtm=111111111111111111111111111111
          Direct CPHF calculation.
          Differentiating once with respect to electric field.
                with respect to dipole field.
          Differentiating once with respect to nuclear coordinates.
          Requested convergence is 1.0D-08 RMS, and 1.0D-07 maximum.
          Secondary convergence is 1.0D-12 RMS, and 1.0D-12 maximum.
          NewPWx=T KeepS1=F KeepF1=F KeepIn=T MapXYZ=F SortEE=F KeepMc=T.
          MDV=    4026531536 using IRadAn=       2.
 Generate precomputed XC quadrature information.
          Solving linear equations simultaneously, MaxMat=       0.
 Integrals replicated using symmetry in FoFDir.
 MinBra= 0 MaxBra= 2 Meth= 1.
 IRaf=       0 NMat=  93 IRICut=     232 DoRegI=T DoRafI=T ISym2E= 2 JSym2E=2.
          There are    93 degrees of freedom in the 1st order CPHF.  IDoFFX=5.
     90 vectors produced by pass  0 Test12= 3.16D-14 1.08D-09 XBig12= 2.21D+02 6.24D+00.
 AX will form    90 AO Fock derivatives at one time.
     90 vectors produced by pass  1 Test12= 3.16D-14 1.08D-09 XBig12= 3.58D+01 8.38D-01.
     90 vectors produced by pass  2 Test12= 3.16D-14 1.08D-09 XBig12= 4.75D-01 7.97D-02.
     90 vectors produced by pass  3 Test12= 3.16D-14 1.08D-09 XBig12= 2.17D-03 3.78D-03.
     90 vectors produced by pass  4 Test12= 3.16D-14 1.08D-09 XBig12= 1.07D-05 2.75D-04.
     90 vectors produced by pass  5 Test12= 3.16D-14 1.08D-09 XBig12= 4.58D-08 1.27D-05.
     51 vectors produced by pass  6 Test12= 3.16D-14 1.08D-09 XBig12= 1.53D-10 8.50D-07.
      8 vectors produced by pass  7 Test12= 3.16D-14 1.08D-09 XBig12= 2.38D-12 1.80D-07.
      8 vectors produced by pass  8 Test12= 3.16D-14 1.08D-09 XBig12= 1.03D-13 3.49D-08.
      3 vectors produced by pass  9 Test12= 3.16D-14 1.08D-09 XBig12= 2.67D-16 1.57D-09.
 Inverted reduced A of dimension   610 with in-core refinement.
 FullF1:  Do perturbations    1 to     3.
 Isotropic polarizability for W=    0.000000      126.86 Bohr**3.
 End of Minotr Frequency-dependent properties file   721 does not exist.
 End of Minotr Frequency-dependent properties file   722 does not exist.
 Leave Link 1002 at Sat Feb 15 18:46:57 2014, MaxMem= 4026531840 cpu:   14420.4
 (Enter /usr/caen/gaussian-09revc/g09/l601.exe)
 Copying SCF densities to generalized density rwf, IOpCl= 1 IROHF=0.

 **********************************************************************

            Population analysis using the SCF density.

 **********************************************************************

 Orbital symmetries:
 Alpha Orbitals:
       Occupied  (A) (A) (A) (A) (A) (A) (A) (A) (A) (A) (A) (A)
                 (A) (A) (A) (A) (A) (A) (A) (A) (A) (A) (A) (A)
                 (A) (A) (A) (A) (A) (A) (A) (A) (A) (A) (A) (A)
                 (A) (A) (A) (A) (A) (A) (A) (A) (A)
       Virtual   (A) (A) (A) (A) (A) (A) (A) (A) (A) (A) (A) (A)
                 (A) (A) (A) (A) (A) (A) (A) (A) (A) (A) (A) (A)
                 (A) (A) (A) (A) (A) (A) (A) (A) (A) (A) (A) (A)
                 (A) (A) (A) (A) (A) (A) (A) (A) (A) (A) (A) (A)
                 (A) (A) (A) (A) (A) (A) (A) (A) (A) (A) (A) (A)
                 (A) (A) (A) (A) (A) (A) (A) (A) (A) (A) (A) (A)
                 (A) (A) (A) (A) (A) (A) (A) (A) (A) (A) (A) (A)
                 (A) (A) (A) (A) (A) (A) (A) (A) (A) (A) (A) (A)
                 (A) (A) (A) (A) (A) (A) (A) (A) (A) (A) (A) (A)
                 (A) (A) (A) (A) (A) (A) (A) (A) (A) (A) (A) (A)
                 (A) (A) (A) (A) (A) (A) (A) (A) (A) (A) (A) (A)
                 (A) (A) (A) (A) (A) (A) (A) (A) (A) (A) (A) (A)
                 (A) (A) (A) (A) (A) (A) (A) (A) (A) (A) (A) (A)
                 (A) (A) (A) (A) (A) (A) (A) (A) (A) (A) (A) (A)
                 (A) (A) (A) (A) (A) (A) (A) (A) (A) (A) (A) (A)
                 (A) (A) (A) (A) (A) (A) (A) (A) (A) (A) (A) (A)
                 (A) (A) (A) (A) (A) (A) (A) (A) (A) (A) (A) (A)
                 (A) (A) (A) (A) (A) (A) (A) (A) (A) (A) (A) (A)
                 (A) (A) (A) (A) (A) (A) (A) (A) (A) (A) (A) (A)
                 (A) (A) (A) (A) (A) (A) (A) (A) (A) (A) (A) (A)
                 (A) (A) (A) (A) (A) (A) (A) (A) (A) (A) (A) (A)
                 (A) (A) (A) (A) (A) (A) (A) (A) (A) (A) (A) (A)
                 (A) (A) (A) (A) (A) (A) (A) (A) (A) (A) (A) (A)
                 (A) (A) (A) (A) (A) (A) (A) (A) (A) (A) (A) (A)
                 (A) (A) (A) (A) (A) (A) (A) (A) (A) (A) (A) (A)
                 (A) (A) (A) (A) (A) (A) (A) (A) (A) (A) (A) (A)
                 (A) (A) (A) (A) (A) (A) (A) (A) (A) (A) (A) (A)
                 (A) (A) (A) (A) (A) (A)
 Beta  Orbitals:
       Occupied  (A) (A) (A) (A) (A) (A) (A) (A) (A) (A) (A) (A)
                 (A) (A) (A) (A) (A) (A) (A) (A) (A) (A) (A) (A)
                 (A) (A) (A) (A) (A) (A) (A) (A) (A) (A) (A) (A)
                 (A) (A) (A) (A) (A) (A) (A) (A)
       Virtual   (A) (A) (A) (A) (A) (A) (A) (A) (A) (A) (A) (A)
                 (A) (A) (A) (A) (A) (A) (A) (A) (A) (A) (A) (A)
                 (A) (A) (A) (A) (A) (A) (A) (A) (A) (A) (A) (A)
                 (A) (A) (A) (A) (A) (A) (A) (A) (A) (A) (A) (A)
                 (A) (A) (A) (A) (A) (A) (A) (A) (A) (A) (A) (A)
                 (A) (A) (A) (A) (A) (A) (A) (A) (A) (A) (A) (A)
                 (A) (A) (A) (A) (A) (A) (A) (A) (A) (A) (A) (A)
                 (A) (A) (A) (A) (A) (A) (A) (A) (A) (A) (A) (A)
                 (A) (A) (A) (A) (A) (A) (A) (A) (A) (A) (A) (A)
                 (A) (A) (A) (A) (A) (A) (A) (A) (A) (A) (A) (A)
                 (A) (A) (A) (A) (A) (A) (A) (A) (A) (A) (A) (A)
                 (A) (A) (A) (A) (A) (A) (A) (A) (A) (A) (A) (A)
                 (A) (A) (A) (A) (A) (A) (A) (A) (A) (A) (A) (A)
                 (A) (A) (A) (A) (A) (A) (A) (A) (A) (A) (A) (A)
                 (A) (A) (A) (A) (A) (A) (A) (A) (A) (A) (A) (A)
                 (A) (A) (A) (A) (A) (A) (A) (A) (A) (A) (A) (A)
                 (A) (A) (A) (A) (A) (A) (A) (A) (A) (A) (A) (A)
                 (A) (A) (A) (A) (A) (A) (A) (A) (A) (A) (A) (A)
                 (A) (A) (A) (A) (A) (A) (A) (A) (A) (A) (A) (A)
                 (A) (A) (A) (A) (A) (A) (A) (A) (A) (A) (A) (A)
                 (A) (A) (A) (A) (A) (A) (A) (A) (A) (A) (A) (A)
                 (A) (A) (A) (A) (A) (A) (A) (A) (A) (A) (A) (A)
                 (A) (A) (A) (A) (A) (A) (A) (A) (A) (A) (A) (A)
                 (A) (A) (A) (A) (A) (A) (A) (A) (A) (A) (A) (A)
                 (A) (A) (A) (A) (A) (A) (A) (A) (A) (A) (A) (A)
                 (A) (A) (A) (A) (A) (A) (A) (A) (A) (A) (A) (A)
                 (A) (A) (A) (A) (A) (A) (A) (A) (A) (A) (A) (A)
                 (A) (A) (A) (A) (A) (A) (A)
 The electronic state is 2-A.
 Alpha  occ. eigenvalues --  -19.18337 -19.17065 -10.22271 -10.18766 -10.18713
 Alpha  occ. eigenvalues --  -10.18416 -10.17710 -10.17601 -10.16003 -10.15967
 Alpha  occ. eigenvalues --  -10.15712  -1.12511  -0.89155  -0.83236  -0.80257
 Alpha  occ. eigenvalues --   -0.75516  -0.69065  -0.68700  -0.67647  -0.61711
 Alpha  occ. eigenvalues --   -0.57063  -0.56515  -0.52346  -0.49199  -0.47496
 Alpha  occ. eigenvalues --   -0.46377  -0.45182  -0.44225  -0.43737  -0.42476
 Alpha  occ. eigenvalues --   -0.41940  -0.40974  -0.39452  -0.38728  -0.37503
 Alpha  occ. eigenvalues --   -0.36102  -0.35756  -0.34713  -0.34089  -0.33829
 Alpha  occ. eigenvalues --   -0.32679  -0.32155  -0.29125  -0.27971  -0.21954
 Alpha virt. eigenvalues --   -0.01467  -0.00344   0.00371   0.00878   0.02112
 Alpha virt. eigenvalues --    0.02309   0.02406   0.03004   0.03506   0.03674
 Alpha virt. eigenvalues --    0.04561   0.05081   0.05531   0.05990   0.06156
 Alpha virt. eigenvalues --    0.06966   0.07237   0.07715   0.08627   0.08955
 Alpha virt. eigenvalues --    0.09452   0.09744   0.10196   0.10659   0.10919
 Alpha virt. eigenvalues --    0.11089   0.11841   0.11939   0.12709   0.12957
 Alpha virt. eigenvalues --    0.13314   0.13673   0.14061   0.14104   0.14164
 Alpha virt. eigenvalues --    0.14357   0.14671   0.15129   0.15471   0.15992
 Alpha virt. eigenvalues --    0.16112   0.16361   0.16503   0.16978   0.17078
 Alpha virt. eigenvalues --    0.17522   0.17989   0.18482   0.18604   0.18814
 Alpha virt. eigenvalues --    0.19191   0.19486   0.20135   0.20216   0.20614
 Alpha virt. eigenvalues --    0.21396   0.22018   0.22511   0.23282   0.23458
 Alpha virt. eigenvalues --    0.24250   0.24402   0.24670   0.25685   0.26422
 Alpha virt. eigenvalues --    0.26848   0.27417   0.27917   0.28368   0.29047
 Alpha virt. eigenvalues --    0.29850   0.30074   0.30505   0.31362   0.32085
 Alpha virt. eigenvalues --    0.32886   0.33161   0.33336   0.33662   0.34091
 Alpha virt. eigenvalues --    0.35275   0.35889   0.36321   0.37098   0.37910
 Alpha virt. eigenvalues --    0.38761   0.39005   0.40168   0.40436   0.42242
 Alpha virt. eigenvalues --    0.42992   0.44911   0.45223   0.46931   0.48339
 Alpha virt. eigenvalues --    0.48776   0.49298   0.51912   0.52449   0.53909
 Alpha virt. eigenvalues --    0.54184   0.54839   0.57136   0.58124   0.58945
 Alpha virt. eigenvalues --    0.59003   0.60584   0.60933   0.62050   0.63091
 Alpha virt. eigenvalues --    0.63330   0.64127   0.65952   0.66388   0.66717
 Alpha virt. eigenvalues --    0.67272   0.67692   0.69892   0.70043   0.70178
 Alpha virt. eigenvalues --    0.70605   0.71906   0.72601   0.73445   0.74182
 Alpha virt. eigenvalues --    0.74930   0.75699   0.75966   0.76104   0.76992
 Alpha virt. eigenvalues --    0.77946   0.78070   0.79083   0.79881   0.81635
 Alpha virt. eigenvalues --    0.83629   0.84865   0.88450   0.90309   0.91535
 Alpha virt. eigenvalues --    0.96468   0.96932   1.00433   1.01735   1.03785
 Alpha virt. eigenvalues --    1.06113   1.07318   1.08790   1.09637   1.11444
 Alpha virt. eigenvalues --    1.12494   1.13299   1.16216   1.17258   1.17893
 Alpha virt. eigenvalues --    1.19856   1.22409   1.24400   1.27017   1.27739
 Alpha virt. eigenvalues --    1.31031   1.31910   1.34197   1.39578   1.42569
 Alpha virt. eigenvalues --    1.43786   1.45464   1.46933   1.48663   1.49010
 Alpha virt. eigenvalues --    1.49542   1.50974   1.53905   1.55996   1.56288
 Alpha virt. eigenvalues --    1.56750   1.57390   1.58308   1.59069   1.59769
 Alpha virt. eigenvalues --    1.60159   1.61081   1.62091   1.62855   1.63337
 Alpha virt. eigenvalues --    1.63513   1.64090   1.65714   1.66206   1.66810
 Alpha virt. eigenvalues --    1.67010   1.68943   1.69697   1.70276   1.72231
 Alpha virt. eigenvalues --    1.73346   1.73907   1.75113   1.76169   1.77499
 Alpha virt. eigenvalues --    1.78837   1.79285   1.81225   1.82627   1.84020
 Alpha virt. eigenvalues --    1.84588   1.89153   1.91003   1.92697   1.93999
 Alpha virt. eigenvalues --    1.96086   1.97036   1.98379   2.03090   2.03527
 Alpha virt. eigenvalues --    2.05036   2.08494   2.09370   2.11807   2.13482
 Alpha virt. eigenvalues --    2.13719   2.14888   2.15973   2.17683   2.19417
 Alpha virt. eigenvalues --    2.22062   2.24688   2.25843   2.27972   2.29619
 Alpha virt. eigenvalues --    2.31921   2.32965   2.35690   2.37213   2.38724
 Alpha virt. eigenvalues --    2.41843   2.44839   2.45871   2.48054   2.49564
 Alpha virt. eigenvalues --    2.50103   2.50930   2.51697   2.52582   2.53613
 Alpha virt. eigenvalues --    2.54324   2.54729   2.56914   2.58438   2.59025
 Alpha virt. eigenvalues --    2.59459   2.60984   2.61313   2.63122   2.64997
 Alpha virt. eigenvalues --    2.67082   2.68359   2.69238   2.70065   2.71958
 Alpha virt. eigenvalues --    2.72602   2.73496   2.75342   2.76274   2.77387
 Alpha virt. eigenvalues --    2.79755   2.80768   2.84400   2.84836   2.86592
 Alpha virt. eigenvalues --    2.87726   2.90878   2.92381   2.92687   2.95271
 Alpha virt. eigenvalues --    2.97637   2.98338   2.98848   2.99856   3.03562
 Alpha virt. eigenvalues --    3.07756   3.10099   3.13950   3.16740   3.19511
 Alpha virt. eigenvalues --    3.20710   3.24940   3.25741   3.36930   3.42488
 Alpha virt. eigenvalues --    3.44073   3.46017   3.51027   3.75465   3.76875
 Alpha virt. eigenvalues --    3.79128   3.79487   3.81066   3.82613   3.83228
 Alpha virt. eigenvalues --    3.84135   3.87335   3.88077   3.94065   3.97851
 Alpha virt. eigenvalues --    4.00456   4.03868   4.09322   4.18553   4.29403
 Alpha virt. eigenvalues --    4.29744   4.31199   4.44251   4.90337   5.10867
 Alpha virt. eigenvalues --    5.13901   5.39360   5.48331   5.83293  23.80116
 Alpha virt. eigenvalues --   23.83499  23.85651  23.87496  23.91371  23.94389
 Alpha virt. eigenvalues --   23.98017  23.99844  24.00050  49.88701  49.92696
  Beta  occ. eigenvalues --  -19.18130 -19.15940 -10.22281 -10.18703 -10.18436
  Beta  occ. eigenvalues --  -10.17867 -10.17708 -10.17619 -10.15993 -10.15968
  Beta  occ. eigenvalues --  -10.15699  -1.11306  -0.87500  -0.82643  -0.80010
  Beta  occ. eigenvalues --   -0.75244  -0.68676  -0.68323  -0.67413  -0.61342
  Beta  occ. eigenvalues --   -0.56348  -0.55825  -0.51271  -0.49028  -0.46993
  Beta  occ. eigenvalues --   -0.46054  -0.44890  -0.43597  -0.42602  -0.41977
  Beta  occ. eigenvalues --   -0.41555  -0.40477  -0.39164  -0.38698  -0.37387
  Beta  occ. eigenvalues --   -0.35818  -0.35454  -0.34240  -0.33862  -0.33178
  Beta  occ. eigenvalues --   -0.32454  -0.31931  -0.27418  -0.26846
  Beta virt. eigenvalues --   -0.10979  -0.01432  -0.00316   0.00400   0.00916
  Beta virt. eigenvalues --    0.02144   0.02328   0.02416   0.03215   0.03563
  Beta virt. eigenvalues --    0.03846   0.04581   0.05153   0.05589   0.06054
  Beta virt. eigenvalues --    0.06245   0.07068   0.07236   0.07767   0.08695
  Beta virt. eigenvalues --    0.08978   0.09476   0.09804   0.10247   0.10682
  Beta virt. eigenvalues --    0.10936   0.11163   0.11883   0.11976   0.12751
  Beta virt. eigenvalues --    0.12990   0.13383   0.13772   0.14112   0.14119
  Beta virt. eigenvalues --    0.14185   0.14402   0.14705   0.15155   0.15546
  Beta virt. eigenvalues --    0.16020   0.16190   0.16385   0.16543   0.17047
  Beta virt. eigenvalues --    0.17163   0.17596   0.18036   0.18507   0.18633
  Beta virt. eigenvalues --    0.18878   0.19281   0.19559   0.20248   0.20389
  Beta virt. eigenvalues --    0.20681   0.21468   0.22116   0.22546   0.23430
  Beta virt. eigenvalues --    0.23532   0.24386   0.24640   0.25223   0.25793
  Beta virt. eigenvalues --    0.26627   0.26955   0.27543   0.27981   0.28450
  Beta virt. eigenvalues --    0.29228   0.29985   0.30542   0.30662   0.31475
  Beta virt. eigenvalues --    0.32157   0.33006   0.33277   0.33492   0.33765
  Beta virt. eigenvalues --    0.34199   0.35430   0.35998   0.36430   0.37776
  Beta virt. eigenvalues --    0.38096   0.39042   0.39403   0.40232   0.40564
  Beta virt. eigenvalues --    0.42357   0.43104   0.45019   0.45304   0.47077
  Beta virt. eigenvalues --    0.48473   0.48930   0.49355   0.52047   0.52557
  Beta virt. eigenvalues --    0.54026   0.54582   0.54923   0.57267   0.58175
  Beta virt. eigenvalues --    0.59147   0.59239   0.60768   0.61009   0.62126
  Beta virt. eigenvalues --    0.63225   0.63534   0.64169   0.66030   0.66496
  Beta virt. eigenvalues --    0.66797   0.67377   0.68075   0.69945   0.70095
  Beta virt. eigenvalues --    0.70397   0.70692   0.71981   0.72670   0.73609
  Beta virt. eigenvalues --    0.74279   0.75193   0.75828   0.76055   0.76199
  Beta virt. eigenvalues --    0.77331   0.78057   0.78232   0.79464   0.80044
  Beta virt. eigenvalues --    0.81700   0.83780   0.85020   0.88658   0.90407
  Beta virt. eigenvalues --    0.91603   0.96628   0.97099   1.00559   1.02067
  Beta virt. eigenvalues --    1.03985   1.06203   1.07529   1.08987   1.09847
  Beta virt. eigenvalues --    1.11886   1.12625   1.13849   1.16387   1.17799
  Beta virt. eigenvalues --    1.18639   1.20402   1.22699   1.24581   1.27582
  Beta virt. eigenvalues --    1.28018   1.31309   1.32119   1.34511   1.39777
  Beta virt. eigenvalues --    1.42800   1.44202   1.45626   1.47036   1.48814
  Beta virt. eigenvalues --    1.49096   1.49657   1.51905   1.54064   1.56193
  Beta virt. eigenvalues --    1.56386   1.57163   1.57459   1.58425   1.59522
  Beta virt. eigenvalues --    1.59899   1.60350   1.61375   1.62306   1.63087
  Beta virt. eigenvalues --    1.63707   1.63764   1.64198   1.65888   1.66626
  Beta virt. eigenvalues --    1.67044   1.67112   1.69115   1.69895   1.70393
  Beta virt. eigenvalues --    1.72428   1.73471   1.74019   1.75203   1.76365
  Beta virt. eigenvalues --    1.77800   1.79017   1.79510   1.81405   1.82743
  Beta virt. eigenvalues --    1.84163   1.84839   1.89367   1.91522   1.93023
  Beta virt. eigenvalues --    1.94130   1.96300   1.97275   1.98656   2.03275
  Beta virt. eigenvalues --    2.03742   2.05399   2.08766   2.09524   2.12027
  Beta virt. eigenvalues --    2.13726   2.13903   2.15158   2.16053   2.17993
  Beta virt. eigenvalues --    2.19665   2.22644   2.24979   2.26300   2.28174
  Beta virt. eigenvalues --    2.29881   2.32245   2.33219   2.35809   2.37612
  Beta virt. eigenvalues --    2.38893   2.42348   2.45395   2.45984   2.48127
  Beta virt. eigenvalues --    2.49676   2.50235   2.51004   2.51758   2.52680
  Beta virt. eigenvalues --    2.53702   2.54473   2.54817   2.57309   2.58678
  Beta virt. eigenvalues --    2.59204   2.59692   2.61207   2.61649   2.63403
  Beta virt. eigenvalues --    2.65191   2.67300   2.68558   2.69715   2.70189
  Beta virt. eigenvalues --    2.72255   2.72792   2.73572   2.75503   2.76618
  Beta virt. eigenvalues --    2.77577   2.79924   2.80868   2.84633   2.85005
  Beta virt. eigenvalues --    2.86929   2.87896   2.90937   2.92773   2.93012
  Beta virt. eigenvalues --    2.95479   2.97948   2.98942   2.99020   3.00227
  Beta virt. eigenvalues --    3.04206   3.08087   3.10695   3.14450   3.16961
  Beta virt. eigenvalues --    3.19832   3.21059   3.25114   3.27397   3.37182
  Beta virt. eigenvalues --    3.42745   3.44904   3.47366   3.51417   3.75742
  Beta virt. eigenvalues --    3.77016   3.79159   3.79548   3.81142   3.82700
  Beta virt. eigenvalues --    3.83353   3.84322   3.87514   3.88526   3.94833
  Beta virt. eigenvalues --    3.98186   4.01490   4.04034   4.10089   4.19239
  Beta virt. eigenvalues --    4.29441   4.29769   4.31501   4.44612   4.90780
  Beta virt. eigenvalues --    5.11701   5.14813   5.41183   5.50346   5.84075
  Beta virt. eigenvalues --   23.80122  23.83507  23.86148  23.87968  23.91366
  Beta virt. eigenvalues --   23.94390  23.98028  23.99846  24.00071  49.89170
  Beta virt. eigenvalues --   49.93552
          Condensed to atoms (all electrons):
              1          2          3          4          5          6
     1  C    5.614693   0.342880   0.421200   0.397488   0.144433  -0.001818
     2  H    0.342880   0.603409  -0.054749  -0.025922   0.027686  -0.014847
     3  H    0.421200  -0.054749   0.611308  -0.042560   0.028122   0.028047
     4  H    0.397488  -0.025922  -0.042560   0.570445  -0.047493  -0.017004
     5  C    0.144433   0.027686   0.028122  -0.047493   6.169709   0.395907
     6  H   -0.001818  -0.014847   0.028047  -0.017004   0.395907   0.611392
     7  C   -0.046469  -0.060568  -0.051276   0.037372  -0.611827  -0.094689
     8  H    0.007620   0.001240  -0.009338  -0.001063  -0.084845  -0.024816
     9  H   -0.018520   0.000407   0.014571  -0.000907  -0.040933  -0.000946
    10  C    0.134892   0.047147  -0.040558  -0.000949   0.089436  -0.018402
    11  H   -0.006032   0.002773  -0.002578   0.000254   0.057174  -0.001122
    12  H    0.004863   0.001486   0.009042  -0.001844   0.017873   0.005049
    13  C   -0.074665  -0.025087   0.052982  -0.000526   0.064851   0.007144
    14  H   -0.052059   0.013690  -0.057843   0.002997  -0.154881  -0.012448
    15  H    0.050968  -0.010877  -0.040609   0.005920  -0.119039  -0.010299
    16  C   -0.071612   0.012154  -0.020814  -0.002353  -0.019858   0.002243
    17  H    0.005261  -0.001414   0.004047   0.000268   0.004922   0.000820
    18  C   -0.001570   0.001403   0.018538  -0.001241   0.066956   0.001307
    19  H    0.002947  -0.000415   0.003315   0.000031   0.003035   0.000239
    20  H   -0.000364   0.000034  -0.000198  -0.000032   0.000695   0.000019
    21  H   -0.002567   0.000904  -0.001949  -0.000098  -0.002467  -0.000194
    22  C   -0.207780  -0.012282  -0.029156  -0.000804  -0.625860  -0.054531
    23  H   -0.006391   0.012817  -0.016917  -0.007905   0.036684  -0.013698
    24  H    0.008039  -0.006195   0.011359   0.002449   0.007343   0.005804
    25  C   -0.020114   0.001495  -0.001944  -0.000722   0.016516  -0.001400
    26  H   -0.000598   0.000095  -0.000409  -0.000037   0.000759   0.000010
    27  H    0.003205  -0.000305   0.004055  -0.000072   0.017110   0.000552
    28  H   -0.001430  -0.000041  -0.002229   0.000152  -0.015031  -0.001096
    29  O   -0.001524   0.001842   0.022082  -0.003431   0.073082   0.021268
    30  O   -0.035132   0.009613  -0.011066  -0.009471   0.057397   0.001293
              7          8          9         10         11         12
     1  C   -0.046469   0.007620  -0.018520   0.134892  -0.006032   0.004863
     2  H   -0.060568   0.001240   0.000407   0.047147   0.002773   0.001486
     3  H   -0.051276  -0.009338   0.014571  -0.040558  -0.002578   0.009042
     4  H    0.037372  -0.001063  -0.000907  -0.000949   0.000254  -0.001844
     5  C   -0.611827  -0.084845  -0.040933   0.089436   0.057174   0.017873
     6  H   -0.094689  -0.024816  -0.000946  -0.018402  -0.001122   0.005049
     7  C    7.284984   0.445489   0.440661  -1.062237  -0.118903  -0.066036
     8  H    0.445489   0.572681  -0.027095  -0.033908  -0.012258  -0.011731
     9  H    0.440661  -0.027095   0.576080  -0.080868  -0.011243   0.011770
    10  C   -1.062237  -0.033908  -0.080868   8.566569   0.352071   0.633734
    11  H   -0.118903  -0.012258  -0.011243   0.352071   0.574031  -0.025936
    12  H   -0.066036  -0.011731   0.011770   0.633734  -0.025936   0.502063
    13  C    0.567956  -0.015241   0.003061  -3.043704   0.038629  -0.327549
    14  H    0.062024   0.015653  -0.013822   0.023962  -0.000676  -0.012315
    15  H    0.027601   0.008248  -0.010405  -0.049194   0.000839  -0.017113
    16  C   -0.176443   0.006870  -0.017297   1.125406  -0.055900   0.080429
    17  H    0.002727  -0.001143  -0.001491  -0.017240   0.006972   0.000378
    18  C   -0.070996  -0.004076   0.004577  -0.062850   0.012613   0.009437
    19  H   -0.002458  -0.000263  -0.000033   0.005981   0.000914   0.000795
    20  H    0.000130  -0.000096  -0.000001  -0.002424  -0.000150   0.000497
    21  H    0.000081   0.000269   0.000285   0.015164  -0.000067   0.000210
    22  C    0.414950   0.013839   0.018867  -0.450795  -0.014853  -0.032306
    23  H   -0.033599   0.003663  -0.008904   0.089637   0.003595  -0.002951
    24  H   -0.033722  -0.008739   0.008422  -0.049155  -0.001342   0.004658
    25  C    0.017052   0.000824   0.004804  -0.112895   0.009584   0.013156
    26  H   -0.002449   0.000045   0.000060   0.005093   0.000493  -0.001108
    27  H   -0.011980  -0.001503   0.000362  -0.009414   0.002359   0.005774
    28  H    0.004109   0.002220  -0.000434   0.024140  -0.006527  -0.004533
    29  O   -0.144828  -0.011273  -0.001636   0.093548   0.014186  -0.003140
    30  O   -0.035594   0.000855   0.001905   0.089062  -0.004063   0.006329
             13         14         15         16         17         18
     1  C   -0.074665  -0.052059   0.050968  -0.071612   0.005261  -0.001570
     2  H   -0.025087   0.013690  -0.010877   0.012154  -0.001414   0.001403
     3  H    0.052982  -0.057843  -0.040609  -0.020814   0.004047   0.018538
     4  H   -0.000526   0.002997   0.005920  -0.002353   0.000268  -0.001241
     5  C    0.064851  -0.154881  -0.119039  -0.019858   0.004922   0.066956
     6  H    0.007144  -0.012448  -0.010299   0.002243   0.000820   0.001307
     7  C    0.567956   0.062024   0.027601  -0.176443   0.002727  -0.070996
     8  H   -0.015241   0.015653   0.008248   0.006870  -0.001143  -0.004076
     9  H    0.003061  -0.013822  -0.010405  -0.017297  -0.001491   0.004577
    10  C   -3.043704   0.023962  -0.049194   1.125406  -0.017240  -0.062850
    11  H    0.038629  -0.000676   0.000839  -0.055900   0.006972   0.012613
    12  H   -0.327549  -0.012315  -0.017113   0.080429   0.000378   0.009437
    13  C   11.751238  -0.080594   0.402011  -3.346410  -0.065347   0.212404
    14  H   -0.080594   0.671023  -0.000611   0.187262   0.001906  -0.078975
    15  H    0.402011  -0.000611   0.681495  -0.025323  -0.011699  -0.079142
    16  C   -3.346410   0.187262  -0.025323   8.495057   0.500591  -0.431095
    17  H   -0.065347   0.001906  -0.011699   0.500591   0.652575  -0.074268
    18  C    0.212404  -0.078975  -0.079142  -0.431095  -0.074268   5.894774
    19  H   -0.065678  -0.007961   0.000070   0.042411   0.016363   0.411041
    20  H    0.043088  -0.002554   0.001905  -0.078264  -0.011887   0.385173
    21  H   -0.037415   0.010218  -0.001140  -0.018720  -0.015553   0.387999
    22  C    0.185381   0.136564   0.033113   0.043830  -0.000693  -0.032851
    23  H   -0.027813   0.013612   0.004779   0.007863  -0.000578  -0.001527
    24  H    0.034871  -0.028947  -0.005436  -0.011842   0.000189   0.003774
    25  C    0.297548   0.001743  -0.010754  -0.424068  -0.132703  -0.001865
    26  H    0.031004   0.003370  -0.000360  -0.124458  -0.017926   0.007001
    27  H    0.004067  -0.021532  -0.001189   0.003920   0.018431  -0.006935
    28  H   -0.058789   0.010131   0.006699   0.022372  -0.010230  -0.004353
    29  O   -0.034684  -0.065307  -0.015245   0.021264   0.000438   0.013549
    30  O   -0.089849   0.050422  -0.001478   0.054276  -0.007095  -0.009827
             19         20         21         22         23         24
     1  C    0.002947  -0.000364  -0.002567  -0.207780  -0.006391   0.008039
     2  H   -0.000415   0.000034   0.000904  -0.012282   0.012817  -0.006195
     3  H    0.003315  -0.000198  -0.001949  -0.029156  -0.016917   0.011359
     4  H    0.000031  -0.000032  -0.000098  -0.000804  -0.007905   0.002449
     5  C    0.003035   0.000695  -0.002467  -0.625860   0.036684   0.007343
     6  H    0.000239   0.000019  -0.000194  -0.054531  -0.013698   0.005804
     7  C   -0.002458   0.000130   0.000081   0.414950  -0.033599  -0.033722
     8  H   -0.000263  -0.000096   0.000269   0.013839   0.003663  -0.008739
     9  H   -0.000033  -0.000001   0.000285   0.018867  -0.008904   0.008422
    10  C    0.005981  -0.002424   0.015164  -0.450795   0.089637  -0.049155
    11  H    0.000914  -0.000150  -0.000067  -0.014853   0.003595  -0.001342
    12  H    0.000795   0.000497   0.000210  -0.032306  -0.002951   0.004658
    13  C   -0.065678   0.043088  -0.037415   0.185381  -0.027813   0.034871
    14  H   -0.007961  -0.002554   0.010218   0.136564   0.013612  -0.028947
    15  H    0.000070   0.001905  -0.001140   0.033113   0.004779  -0.005436
    16  C    0.042411  -0.078264  -0.018720   0.043830   0.007863  -0.011842
    17  H    0.016363  -0.011887  -0.015553  -0.000693  -0.000578   0.000189
    18  C    0.411041   0.385173   0.387999  -0.032851  -0.001527   0.003774
    19  H    0.532031  -0.027771  -0.043665  -0.003864  -0.000126   0.000006
    20  H   -0.027771   0.558776  -0.024176  -0.000192   0.000014   0.000030
    21  H   -0.043665  -0.024176   0.588550   0.000724   0.000101  -0.000008
    22  C   -0.003864  -0.000192   0.000724   6.556033   0.193729   0.418368
    23  H   -0.000126   0.000014   0.000101   0.193729   0.676822  -0.064641
    24  H    0.000006   0.000030  -0.000008   0.418368  -0.064641   0.588653
    25  C   -0.032865   0.005357   0.019971  -0.003169   0.001138   0.001700
    26  H    0.000041  -0.000276   0.002867   0.000169   0.000028   0.000002
    27  H    0.014739   0.000493  -0.005386  -0.018829  -0.000068   0.001279
    28  H   -0.005103   0.001643  -0.001870   0.011848   0.000404  -0.000998
    29  O   -0.000015   0.000139   0.000129   0.104858  -0.036653  -0.060723
    30  O   -0.002759  -0.000453   0.001683  -0.066538   0.001979   0.006842
             25         26         27         28         29         30
     1  C   -0.020114  -0.000598   0.003205  -0.001430  -0.001524  -0.035132
     2  H    0.001495   0.000095  -0.000305  -0.000041   0.001842   0.009613
     3  H   -0.001944  -0.000409   0.004055  -0.002229   0.022082  -0.011066
     4  H   -0.000722  -0.000037  -0.000072   0.000152  -0.003431  -0.009471
     5  C    0.016516   0.000759   0.017110  -0.015031   0.073082   0.057397
     6  H   -0.001400   0.000010   0.000552  -0.001096   0.021268   0.001293
     7  C    0.017052  -0.002449  -0.011980   0.004109  -0.144828  -0.035594
     8  H    0.000824   0.000045  -0.001503   0.002220  -0.011273   0.000855
     9  H    0.004804   0.000060   0.000362  -0.000434  -0.001636   0.001905
    10  C   -0.112895   0.005093  -0.009414   0.024140   0.093548   0.089062
    11  H    0.009584   0.000493   0.002359  -0.006527   0.014186  -0.004063
    12  H    0.013156  -0.001108   0.005774  -0.004533  -0.003140   0.006329
    13  C    0.297548   0.031004   0.004067  -0.058789  -0.034684  -0.089849
    14  H    0.001743   0.003370  -0.021532   0.010131  -0.065307   0.050422
    15  H   -0.010754  -0.000360  -0.001189   0.006699  -0.015245  -0.001478
    16  C   -0.424068  -0.124458   0.003920   0.022372   0.021264   0.054276
    17  H   -0.132703  -0.017926   0.018431  -0.010230   0.000438  -0.007095
    18  C   -0.001865   0.007001  -0.006935  -0.004353   0.013549  -0.009827
    19  H   -0.032865   0.000041   0.014739  -0.005103  -0.000015  -0.002759
    20  H    0.005357  -0.000276   0.000493   0.001643   0.000139  -0.000453
    21  H    0.019971   0.002867  -0.005386  -0.001870   0.000129   0.001683
    22  C   -0.003169   0.000169  -0.018829   0.011848   0.104858  -0.066538
    23  H    0.001138   0.000028  -0.000068   0.000404  -0.036653   0.001979
    24  H    0.001700   0.000002   0.001279  -0.000998  -0.060723   0.006842
    25  C    5.822309   0.446012   0.374124   0.379084   0.009909  -0.002966
    26  H    0.446012   0.552263  -0.035296  -0.022408   0.000645  -0.000236
    27  H    0.374124  -0.035296   0.520230  -0.038416   0.004283  -0.009754
    28  H    0.379084  -0.022408  -0.038416   0.574477  -0.003889   0.003407
    29  O    0.009909   0.000645   0.004283  -0.003889   7.905665   0.106389
    30  O   -0.002966  -0.000236  -0.009754   0.003407   0.106389   8.089903
 Mulliken atomic charges:
              1
     1  C   -0.589842
     2  H    0.131625
     3  H    0.155524
     4  H    0.147059
     5  C    0.442541
     6  H    0.186215
     7  C   -0.681063
     8  H    0.167874
     9  H    0.148703
    10  C   -0.261250
    11  H    0.185163
    12  H    0.199018
    13  C   -0.402884
    14  H    0.385947
    15  H    0.186260
    16  C    0.218505
    17  H    0.153378
    18  C   -0.568973
    19  H    0.159017
    20  H    0.150846
    21  H    0.126120
    22  C   -0.577772
    23  H    0.174905
    24  H    0.167960
    25  C   -0.676860
    26  H    0.155601
    27  H    0.185694
    28  H    0.136690
    29  O   -0.010925
    30  O   -0.195078
 Sum of Mulliken atomic charges =   0.00000
 Mulliken charges with hydrogens summed into heavy atoms:
              1
     1  C   -0.155634
     5  C    0.628757
     7  C   -0.364486
    10  C    0.122931
    13  C   -0.216624
    16  C    0.371884
    18  C   -0.132990
    22  C   -0.234907
    25  C   -0.198874
    29  O   -0.010925
    30  O    0.190868
 Sum of Mulliken charges with hydrogens summed into heavy atoms =   0.00000
          Atomic-Atomic Spin Densities.
              1          2          3          4          5          6
     1  C   -0.011042   0.003008   0.001339  -0.001614   0.001167  -0.001672
     2  H    0.003008  -0.000880  -0.000640  -0.000048  -0.002787  -0.000293
     3  H    0.001339  -0.000640  -0.000160   0.000588  -0.006428  -0.000229
     4  H   -0.001614  -0.000048   0.000588   0.000368   0.000725   0.000374
     5  C    0.001167  -0.002787  -0.006428   0.000725  -0.068685  -0.004036
     6  H   -0.001672  -0.000293  -0.000229   0.000374  -0.004036   0.000582
     7  C    0.013036   0.002381   0.001754  -0.001855   0.036261  -0.003197
     8  H    0.000597   0.000246  -0.000007  -0.000105   0.004557  -0.000352
     9  H    0.003899   0.000023  -0.000265  -0.000077  -0.007621  -0.000925
    10  C    0.001457   0.000782  -0.004007  -0.000543  -0.018939  -0.003374
    11  H   -0.002551  -0.000346   0.000092   0.000129   0.006680   0.000696
    12  H    0.002458   0.000036  -0.000049  -0.000042  -0.003307  -0.000619
    13  C   -0.016784  -0.002038   0.007135   0.001263  -0.002821   0.003536
[...]
 00049453,-0.00016518,0.00007104,0.00008846,-0.00001086,-0.00001921,0.0
 0009581,-0.00002477,0.00004124,-0.00001037,0.00001245,0.00000908,-0.00
 004832,0.00000977,-0.00001819,0.00000939,0.00001614,0.00001934,0.00001
 077,-0.00000438,0.00000147,0.00001824,-0.00000450,-0.02491348,-0.05966
 428,0.05105503,0.00617197,0.00378414,-0.01344537,0.01775532,0.06573691
 ,-0.00035630,0.00129207,0.00113165,0.00027675,0.00025957,-0.00032558,0
 .00003036,-0.00014549,0.00006703,0.00015621,-0.00009440,0.00033291,-0.
 00009628,0.00041758,-0.00340715,-0.00058693,0.00064867,0.00049094,-0.0
 0004740,0.00000784,0.00043056,0.00020997,0.00029939,0.00023678,0.00000
 297,0.00009762,0.00008401,0.00003758,0.00010138,-0.00004718,0.00001228
 ,-0.00001083,0.00001977,0.00007839,-0.00004678,0.00001472,-0.00008734,
 -0.00012760,-0.00009171,0.00008663,0.00011082,0.00010314,-0.00002856,-
 0.00002098,0.00004003,-0.00001097,0.00005766,0.00004486,0.00003305,-0.
 00000445,0.00000258,-0.00000045,-0.00000139,0.00000955,-0.00000335,0.0
 0000326,-0.00000321,0.00001500,-0.00000204,-0.00000026,-0.00000666,-0.
 00000508,0.00000446,0.09048124,0.04760442,-0.25628848,0.00863407,0.004
 91936,-0.01841643,-0.10049050,-0.05381857,0.27267705,0.00000193,-0.000
 14772,-0.00016966,0.00004906,-0.00001697,0.00001409,-0.00007155,0.0001
 2758,0.00014267,-0.00012579,-0.00001281,0.00003038,0.00008225,0.000084
 03,-0.00003322,-0.00002754,-0.00002250,0.00002067,0.00033560,0.0002810
 8,-0.00029538,-0.00003226,-0.00008136,0.00009125,-0.00009782,-0.000089
 89,-0.00001420,-0.00074751,-0.00061813,-0.00058091,0.00023775,0.000142
 20,0.00020103,-0.00063104,0.00081490,-0.00013417,-0.01072787,0.0252120
 3,-0.02397122,0.00039910,0.00131978,0.00000816,-0.00620175,0.00136184,
 -0.00038773,-0.08116505,0.01769382,-0.01209834,0.00322979,-0.00905022,
 0.00735595,0.00341190,-0.01004096,0.00774436,0.00017030,0.00026618,-0.
 00069475,0.00018160,-0.00077615,0.00098542,-0.00119723,0.00027625,0.00
 333970,-0.00006793,0.00012442,-0.00004462,0.00000991,-0.00000927,-0.00
 000482,0.00001897,-0.00001361,0.00001799,0.56144683,-0.00002215,-0.000
 07043,-0.00002623,0.00002219,-0.00002611,0.00000672,-0.00000119,0.0000
 5529,0.00000340,-0.00003300,-0.00000402,-0.00000651,0.00006513,0.00004
 174,0.00002166,-0.00000940,-0.00004356,-0.00000320,-0.00005906,0.00014
 316,0.00028345,-0.00008630,0.00003384,0.00000527,-0.00004606,0.0000193
 6,-0.00002219,-0.00056752,-0.00003034,-0.00010483,0.00009177,-0.000068
 05,-0.00005184,0.00029793,0.00024672,0.00000323,0.00646350,-0.00341523
 ,0.00377192,-0.00148462,-0.00018763,-0.00088326,-0.00095121,0.00057272
 ,-0.00123081,0.01577433,-0.13227754,0.04598561,0.00711697,-0.02452725,
 0.02062335,-0.00248705,0.00368377,0.00112949,0.00017992,0.00095750,-0.
 00119231,0.00011062,0.00004899,-0.00053546,0.00078123,0.00088128,-0.00
 280586,-0.00020651,0.00009935,0.00003108,0.00004887,-0.00003994,-0.000
 00533,0.00004593,-0.00001537,-0.00001270,0.02155687,0.50085029,-0.0000
 3253,-0.00002813,0.00002105,0.00001235,-0.00004085,0.00001456,0.000014
 80,0.00002371,-0.00006837,0.00002358,0.00000885,-0.00002967,0.00000408
 ,0.00012598,0.00004587,-0.00000251,-0.00006950,-0.00001343,0.00021761,
 0.00025090,-0.00052986,0.00014540,-0.00004638,-0.00001438,-0.00018971,
 0.00006002,-0.00007656,-0.00052335,-0.00138894,0.00029301,0.00017444,-
 0.00037577,0.00014889,0.00039811,0.00083040,0.00025929,-0.00877207,0.0
 0228359,-0.00287652,0.00071535,0.00154710,0.00009625,0.00102082,0.0005
 5422,0.00124284,-0.00852039,0.04412892,-0.11449402,0.00244943,-0.00652
 266,0.00548725,-0.00503297,0.02465715,-0.02719504,-0.00074963,0.000641
 17,0.00155600,-0.00110910,0.00022375,0.00152700,0.00198429,-0.00038718
 ,-0.00508500,-0.00050255,0.00025642,0.00009921,0.00010588,-0.00004139,
 0.00004214,0.00008228,-0.00000787,-0.00002127,-0.02025388,0.05201306,0
 .52769526,0.00001061,-0.00002159,-0.00001650,0.00000085,0.00001959,0.0
 0000288,-0.00000676,0.00000521,0.00003885,-0.00002874,-0.00001376,-0.0
 0000755,-0.00000736,0.00002013,0.00003623,-0.00003868,0.00001098,-0.00
 001026,0.00007004,0.00008785,-0.00004574,-0.00004434,-0.00001592,0.000
 01864,-0.00006820,0.00002432,-0.00002434,0.00006340,-0.00033840,-0.000
 15824,0.00001757,0.00003088,0.00001412,0.00017142,0.00012197,-0.000190
 63,0.00142130,0.00156246,-0.00064765,0.00010019,-0.00027008,0.00013791
 ,-0.00051834,0.00015686,-0.00009442,-0.00770051,0.00010283,0.00006597,
 0.00042577,0.00050138,0.00009442,0.00034637,-0.00071423,0.00085263,-0.
 00007900,0.00003998,-0.00004912,0.00073642,0.00001578,-0.00055898,0.00
 041419,0.00001876,0.00002323,0.00024404,-0.00005101,-0.00002171,-0.000
 05166,-0.00000039,-0.00003970,-0.00002093,0.00001920,0.00001623,-0.303
 68382,0.02361569,-0.01188957,0.33024660,0.00000194,0.00005629,0.000046
 69,-0.00001636,0.00000763,-0.00000477,0.00001169,-0.00004105,-0.000039
 44,0.00003827,0.00000354,-0.00000570,-0.00003182,-0.00003432,0.0000061
 9,0.00001427,0.00001396,-0.00000188,0.00000403,0.00002026,-0.00006784,
 0.00004890,0.00000041,-0.00002277,-0.00000884,0.00002268,0.00000405,-0
 .00014989,0.00015809,0.00038309,-0.00007802,0.00003900,-0.00002127,0.0
 0001226,-0.00009840,-0.00013303,-0.00040977,-0.00364564,0.00340067,0.0
 0025912,-0.00005957,0.00022633,0.00154584,-0.00001144,0.00028847,0.025
 65944,-0.00329852,0.00139910,-0.00000971,0.00065578,-0.00091092,0.0003
 5485,0.00078072,-0.00112132,-0.00018824,0.00000368,0.00006958,-0.00043
 784,0.00022452,0.00032647,-0.00011111,-0.00011123,-0.00033374,0.000035
 38,-0.00006927,-0.00002450,-0.00001604,0.00001721,-0.00000083,-0.00000
 478,0.00000521,0.00000013,0.02230811,-0.04862436,0.00037755,-0.0269474
 7,0.05133624,0.00001643,-0.00001696,-0.00004727,0.00000747,0.00000403,
 -0.00000156,-0.00002347,0.00002314,0.00004151,-0.00002952,-0.00000300,
 0.00001772,0.00003202,-0.00003935,-0.00004176,0.00000648,0.00001543,0.
 00001685,-0.00013519,-0.00018074,0.00026017,-0.00006209,0.00001052,0.0
 0001183,0.00013479,-0.00005433,0.00002354,0.00062912,0.00024664,-0.000
 20797,-0.00007174,0.00014531,-0.00001317,-0.00024982,-0.00041770,0.000
 20732,0.00043420,0.00347113,-0.00303710,0.00010155,-0.00015619,-0.0000
 1232,-0.00137242,0.00034642,-0.00003734,-0.02169489,0.00160550,-0.0022
 9283,0.00054118,-0.00047866,0.00065111,-0.00145003,-0.00032926,0.00089
 751,-0.00002737,-0.00002451,-0.00012929,0.00057671,0.00024085,-0.00027
 633,0.00023611,-0.00016501,0.00030519,0.00006079,-0.00003132,0.0000001
 8,-0.00001051,0.00000756,-0.00000364,-0.00002461,-0.00000018,0.0000070
 1,-0.01024665,0.00020752,-0.04688003,0.01277354,-0.00394684,0.04945106
 ,-0.00000975,-0.00001334,-0.00000303,0.00000870,-0.00002182,0.00000278
 ,0.00000116,0.00001638,-0.00002304,0.00000851,0.00000442,0.00000055,0.
 00002168,0.00001816,-0.00000708,0.00001111,-0.00003140,-0.00000151,-0.
 00006729,-0.00007989,0.00002347,0.00000605,0.00000668,-0.00000635,0.00
 003474,-0.00002144,0.00000514,0.00002598,0.00011167,-0.00001885,0.0000
 6752,-0.00012472,-0.00007501,-0.00011207,0.00009030,0.00017765,0.00108
 016,0.00057999,0.00069746,0.00015944,0.00057151,-0.00018578,0.00007578
 ,-0.00023251,-0.00001051,0.00289319,0.00851972,0.00286761,0.00030974,0
 .00182207,-0.00114860,-0.00016972,-0.00038031,0.00017608,0.00020896,-0
 .00018800,0.00023480,-0.00003747,-0.00013245,-0.00007698,-0.00003773,0
 .00015931,0.00014236,-0.00022559,0.00011992,0.00004235,0.00005275,-0.0
 0001247,0.00003419,0.00002545,-0.00001722,-0.00000982,-0.08782968,-0.0
 8925980,-0.03136961,-0.01162910,-0.02819035,-0.01038956,0.09082296,0.0
 0001767,0.00002038,-0.00000177,-0.00001212,0.00001593,-0.00000216,-0.0
 0000532,-0.00001842,0.00000847,0.00000486,-0.00000005,0.00000376,-0.00
 000265,-0.00002021,-0.00001660,0.00000445,0.00001651,0.00000802,0.0000
 3116,0.00007589,-0.00004918,0.00002194,-0.00001511,-0.00000225,-0.0000
 3364,0.00000810,-0.00000546,0.00022164,-0.00018718,-0.00002462,-0.0000
 6775,0.00014757,0.00010354,0.00018316,-0.00021223,-0.00016618,-0.00155
 413,0.00041946,-0.00091817,0.00075129,-0.00024284,0.00038274,0.0000582
 8,0.00032933,0.00010926,-0.00849591,-0.02267522,-0.00686421,0.00161678
 ,-0.00284947,0.00361079,0.00006198,0.00078807,-0.00111290,-0.00016561,
 0.00046666,0.00078541,0.00002652,-0.00000844,0.00007828,0.00023003,0.0
 0035932,0.00005410,0.00009237,-0.00009371,0.00000337,-0.00002678,0.000
 02738,-0.00000635,-0.00001921,0.00001634,0.00000775,-0.08766231,-0.241
 11231,-0.07014964,0.00130386,0.00412501,0.00160160,0.09603982,0.264948
 62,-0.00000856,0.00000723,0.00001124,0.00000360,0.00000007,-0.00000544
 ,0.00000951,-0.00000038,-0.00000505,0.00000092,-0.00000090,0.00000089,
 -0.00000359,-0.00000802,0.00001048,0.00000632,0.00001334,0.00000032,0.
 00001135,0.00009708,0.00004523,-0.00000678,-0.00000672,-0.00000628,-0.
 00001876,0.00000321,-0.00000879,-0.00000326,-0.00010299,0.00002847,0.0
 0000125,0.00013837,-0.00001565,0.00004758,-0.00013404,-0.00013200,0.00
 077145,-0.00048866,0.00082305,-0.00004415,0.00046273,0.00008793,0.0001
 7056,-0.00022079,-0.00003160,0.00858108,0.01881850,0.00600034,-0.00099
 832,0.00380739,-0.00208430,0.00038904,0.00067913,0.00170896,-0.0001753
 9,-0.00039125,-0.00036117,0.00000706,-0.00001192,-0.00009975,-0.000136
 73,-0.00033577,0.00014158,0.00008587,0.00002467,-0.00011785,-0.0000322
 0,0.00001131,0.00000022,0.00004983,-0.00001803,-0.00000329,-0.03120288
 ,-0.07096651,-0.07303376,-0.00002221,-0.00001800,-0.00121076,0.0355520
 1,0.07461440,0.07705745,0.00000771,0.00001769,-0.00000002,-0.00000312,
 -0.00000646,-0.00000231,-0.00000519,-0.00000418,-0.00000921,0.00001038
 ,0.00000445,0.00000963,0.00001105,-0.00001807,-0.00003624,0.00002424,0
 .00000325,0.00001269,-0.00010485,-0.00006176,-0.00000247,0.00002601,0.
 00000736,-0.00001311,0.00007000,-0.00002362,0.00001905,-0.00072612,0.0
 0044672,-0.00010176,-0.00006844,0.00002013,0.00006792,-0.00148148,0.00
 058711,-0.00020819,0.00019433,-0.00046334,-0.00026484,0.00002752,-0.00
 007024,-0.00006833,0.00011005,0.00001928,0.00014978,0.00195716,-0.0028
 9234,-0.00811886,0.00005872,-0.00036411,0.00049533,-0.00034296,0.00087
 731,-0.00056172,-0.00009052,0.00010975,0.00017873,0.00046660,0.0000800
 4,-0.00026679,0.00056778,0.00017520,-0.00028852,-0.00008438,-0.0000082
 1,0.00003432,0.00002142,0.00000461,0.00001731,-0.00001419,-0.00000443,
 -0.00000549,-0.07667416,0.01742510,0.08179865,-0.01018947,0.00669060,0
 .03024821,0.00442423,-0.00183225,-0.01279236,0.08175225,-0.00000779,-0
 .00000813,-0.00000053,-0.00000300,0.00000478,0.00000445,0.00000103,-0.
 00000651,0.00000832,-0.00000159,-0.00000058,-0.00000627,-0.00003983,0.
 00002207,0.00002299,-0.00002204,-0.00000956,-0.00001775,-0.00000166,-0
 .00019794,-0.00005268,-0.00000427,0.00000745,0.00001134,0.00001740,-0.
 00000433,0.00001758,0.00060878,0.00037071,0.00001204,0.00006487,-0.000
 29463,-0.00014643,0.00032730,-0.00006762,0.00008922,-0.00014641,0.0008
 2894,-0.00058692,0.00003309,-0.00012220,-0.00001203,-0.00019140,-0.000
 02739,-0.00002536,-0.01007343,0.00550432,0.02323227,-0.00051853,0.0010
 3019,-0.00065309,0.00190062,-0.00373723,0.00251878,0.00017386,0.000139
 62,0.00029228,0.00001031,-0.00014760,-0.00022834,-0.00040532,0.0002973
 2,0.00162063,0.00000948,0.00002676,0.00003067,0.00000762,-0.00001284,-
 0.00000033,-0.00003318,0.00001116,0.00000693,0.01751624,-0.05755969,-0
 .04814945,0.00056187,-0.00165554,-0.00223810,0.01118103,-0.00472143,-0
 .02553937,-0.02084287,0.06030446,0.00004746,0.00001531,-0.00002307,-0.
 00000250,0.00000188,-0.00000772,-0.00001956,0.00000486,0.00001187,-0.0
 0000137,0.00000446,0.00003118,0.00004383,-0.00009523,-0.00010347,0.000
 03862,0.00003250,0.00004071,-0.00025681,-0.00030119,0.00051438,-0.0000
 6980,0.00003708,-0.00000853,0.00023398,-0.00009224,0.00004508,0.000793
 46,0.00050868,0.00000711,-0.00004650,0.00024538,-0.00003414,-0.0003903
 8,-0.00076527,0.00057895,0.00103934,-0.00020251,-0.00008776,0.00003065
 ,-0.00028530,-0.00015848,-0.00011045,0.00001164,0.00006420,0.00659541,
 -0.00560837,-0.01781372,0.00013075,0.00034051,0.00092512,-0.00195784,0
 .00450546,-0.00142864,-0.00010213,-0.00001827,0.00042266,0.00004170,-0
 .00006265,0.00026252,0.00065663,-0.00012947,-0.00127462,0.00000567,-0.
 00008533,0.00003999,0.00000692,0.00002587,0.00001015,-0.00004813,-0.00
 000361,0.00000546,0.08055567,-0.04682453,-0.26811237,-0.00018880,0.000
 31343,0.00231576,0.00332365,-0.00170895,-0.00866961,-0.09035054,0.0498
 3358,0.29234990,-0.00017494,-0.00037974,0.00097180,-0.00009841,0.00037
 141,-0.00007707,0.00032413,-0.00049197,-0.00070283,0.00051205,-0.00008
 902,0.00038819,-0.01330810,0.01222730,0.00374415,0.00117912,0.00280899
 ,-0.00124070,-0.00017410,-0.00041791,-0.00140195,0.00040162,0.00004678
 ,-0.00000326,0.00047987,0.00033405,0.00031437,-0.00298749,-0.00278057,
 0.00010778,0.00105995,-0.00065324,-0.00119479,0.00019508,-0.00067591,-
 0.00018157,0.00906430,0.01611316,0.00908993,-0.02432976,-0.02720020,0.
 01289231,-0.00141586,-0.00239151,-0.00147249,-0.00050884,-0.00465401,-
 0.00163344,-0.00180864,0.00059394,-0.00013957,0.00022941,0.00032500,-0
 .00052025,0.00021235,-0.00002467,-0.00000849,-0.00030074,-0.00004155,0
 .00005478,0.00007728,-0.00009430,-0.00003906,-0.15047776,0.05121521,-0
 .05102039,-0.03826904,0.01525304,-0.00467998,-0.02308566,0.00741540,0.
 00310949,0.00024969,-0.00022650,0.00068903,-0.00017688,0.00022860,-0.0
 0007355,-0.00015187,0.00027949,-0.00006315,0.00008860,-0.00000058,-0.0
 0006064,0.32422617,0.00008756,0.00013515,-0.00055703,-0.00024077,-0.00
 006762,0.00055967,-0.00024907,-0.00020172,0.00080509,0.00007951,-0.000
 07981,0.00021684,0.04049730,-0.01220194,0.00016095,0.00093907,-0.00869
 400,0.00201136,0.00008431,0.00442583,0.00029170,0.00007860,-0.00015159
 ,-0.00016746,0.00014774,0.00043017,0.00031890,-0.00146908,-0.00028961,
 -0.00097138,-0.00105625,-0.00123377,0.00054027,-0.00056234,-0.00298693
 ,0.00013586,0.00019108,-0.00206690,-0.00025382,-0.01052645,-0.00354083
 ,0.02051865,-0.00037152,-0.00013779,-0.00015479,0.00004634,-0.00037229
 ,0.00011120,-0.00010490,0.00018539,0.00009785,-0.00004099,-0.00015968,
 -0.00013130,-0.00008101,0.00005126,0.00017138,-0.00002666,0.00009604,0
 .00006779,0.00004242,0.00008490,-0.00002750,0.03777208,-0.08914065,0.0
 3278398,-0.00188903,0.00828918,0.00317308,-0.00424957,0.00237560,-0.00
 079425,-0.00007428,-0.00012088,-0.00004582,-0.00003276,0.00010051,0.00
 000180,-0.00009994,0.00016156,-0.00009405,0.00007850,-0.00001473,0.000
 11436,-0.05670962,0.14402884,0.00005914,-0.00054616,-0.00104628,0.0005
 3287,-0.00017751,0.00025232,-0.00012041,0.00063261,-0.00012373,-0.0001
 8994,0.00004280,0.00022547,-0.00712112,0.00295798,0.00070702,0.0001075
 1,0.00030889,0.00042171,0.00154067,0.00031239,0.00130974,-0.00046904,0
 .00015457,0.00000866,0.00007870,-0.00033388,-0.00013252,0.00089993,0.0
 0343675,-0.00128899,-0.00153087,-0.00100077,0.00250589,-0.00070227,-0.
 00298184,0.00162913,-0.01150217,-0.02711290,-0.01505326,0.02712058,0.0
 4538375,0.00604644,0.00169245,0.00328224,0.00224522,0.00080685,0.00665
 813,0.00259887,0.00253872,-0.00077019,0.00026438,-0.00033389,-0.000130
 34,0.00088687,-0.00014277,-0.00008679,-0.00028637,0.00031408,-0.000054
 24,-0.00010623,-0.00014047,-0.00005699,0.00008288,-0.02539918,0.024182
 58,-0.08377551,-0.02447555,0.01244483,0.00085939,0.03311754,-0.0116557
 1,-0.00141083,-0.00018567,0.00068401,-0.00093038,0.00011942,-0.0003555
 3,0.00020274,0.00005248,-0.00055277,-0.00002631,0.00003308,0.00005201,
 0.00023863,-0.04764047,-0.07772345,0.26209414,0.00042355,0.00213762,-0
 .00165160,-0.00084247,0.00031889,0.00014228,-0.00169523,0.00131081,0.0
 0085262,-0.00032630,0.00005456,-0.00008862,0.00539960,0.00057059,-0.00
 364063,0.00039170,-0.00183717,0.00019797,0.00070554,-0.00007670,0.0006
 0001,-0.00026641,-0.00005469,0.00010712,-0.00002070,-0.00025490,-0.000
 10067,0.00269074,0.00697394,0.00146594,-0.00156282,-0.00058987,0.00174
 615,-0.00018538,-0.00073148,0.00079066,-0.02972622,-0.07032141,-0.0304
 5749,0.01215144,0.04539752,0.00720497,0.00211468,0.00396300,0.00336038
 ,0.00296245,0.00680924,0.00245638,0.00197503,-0.00089522,0.00008383,-0
 .00020346,0.00010857,0.00117769,-0.00038256,-0.00008031,-0.00015246,0.
 00029693,0.00002668,-0.00010348,-0.00012465,-0.00013876,0.00007541,-0.
 03102715,-0.00533298,0.04984026,0.00593443,-0.00193843,0.00062128,-0.0
 0784955,0.00400389,-0.00146817,-0.00054368,0.00184434,-0.00088821,-0.0
 0002500,-0.00061304,0.00006280,0.00003217,-0.00106761,-0.00017909,-0.0
 0003318,-0.00012163,0.00006172,-0.08103153,-0.00226026,0.05093982,0.12
 076802,0.00005290,-0.00228516,0.00071129,0.00102382,-0.00051111,-0.000
 25128,0.00216348,-0.00037990,-0.00037681,-0.00016672,0.00015735,-0.000
 04564,0.00077946,0.00164709,-0.00161849,-0.00023530,-0.00053795,0.0001
 1204,0.00118398,-0.00016862,0.00047918,-0.00026852,0.00002630,0.000006
 43,-0.00023713,-0.00011653,0.00000313,0.00099781,0.00536907,0.00262050
 ,-0.00100102,-0.00003518,0.00115594,-0.00004008,-0.00057899,-0.0002760
 1,-0.04657154,-0.09410586,-0.03943177,0.03178567,0.02752775,-0.0110949
 0,0.00265323,0.00466200,0.00309925,0.00314027,0.00539826,0.00233432,0.
 00088554,-0.00087917,-0.00036943,-0.00058678,0.00010589,0.00074723,-0.
 00034959,0.00008924,0.00025533,0.00015129,0.00007325,0.00003161,-0.000
 00547,0.00001778,-0.00007944,-0.00070284,0.00427120,-0.01208296,0.0005
 5408,-0.00064217,0.00081935,0.00305338,0.00023666,-0.00074991,-0.00046
 915,0.00048870,-0.00072920,0.00018601,0.00007864,0.00015472,-0.0004353
 4,0.00023051,-0.00034001,0.00004479,0.00004017,0.00018793,-0.01038104,
 -0.03890368,0.02300553,0.01279480,0.08872447,0.00042300,0.00141398,0.0
 0009052,-0.00089384,0.00050096,0.00028965,-0.00138176,-0.00051789,0.00
 050427,0.00040226,-0.00014889,-0.00000964,-0.00224480,-0.00107627,0.00
 169283,-0.00053906,0.00145029,0.00013929,-0.00089214,-0.00027593,-0.00
 120771,0.00044920,0.00008439,0.00012306,0.00004580,0.00030126,0.000216
 78,-0.00416314,-0.00540740,0.00037065,0.00184669,0.00087280,-0.0018462
 7,0.00058797,0.00107058,-0.00126444,0.00211756,0.00550580,0.01013753,-
 0.01075266,-0.03960716,-0.04282543,-0.00101958,-0.00311595,-0.00123606
 ,-0.00033564,-0.00602556,-0.00257982,-0.00249474,0.00075609,-0.0003283
 4,0.00026089,-0.00008804,-0.00104202,0.00003119,0.00036514,0.00039980,
 -0.00028975,0.00014644,0.00021788,0.00014009,-0.00000809,-0.00003375,0
 .02353895,-0.00642471,-0.01256270,-0.00305879,0.00104426,0.00299415,0.
 00088601,-0.00155997,0.00431289,-0.00018922,-0.00009820,0.00083205,-0.
 00022867,0.00016664,-0.00021811,-0.00000683,0.00020972,-0.00010453,0.0
 0002607,-0.00009644,-0.00014153,0.08079182,0.01884012,-0.17839909,-0.0
 8305686,0.03172204,0.22147807\\0.00000739,-0.00001806,-0.00000731,0.,-
 0.00000424,-0.00000815,0.00000186,-0.00000037,-0.00000315,0.00000528,-
 0.00000905,-0.00000498,-0.00001036,0.00001894,-0.00001198,0.00000310,0
 .00001249,-0.00001103,-0.00000828,0.00001599,0.00000935,-0.00000260,0.
 00000714,0.00000058,0.00000290,-0.00000821,0.00000180,0.00000592,0.000
 02083,0.00000049,-0.00000472,0.00000643,-0.00000386,0.00000169,0.00000
 203,0.00000571,0.00001351,-0.00000919,-0.00003375,-0.00000108,0.000018
 46,0.00001676,0.00000263,-0.00000199,0.00000299,-0.00000240,-0.0000083
 8,0.00000507,-0.00000025,0.00000088,-0.00000315,0.00000076,-0.00000419
 ,0.00000531,0.00000103,-0.00000946,0.00000461,0.00000076,-0.00000980,0
 .00000486,0.00000409,-0.00000963,0.00000055,-0.00001765,0.00001001,-0.
 00000174,0.00000058,0.00000162,-0.00000152,0.00001069,0.00000413,0.000
 00114,-0.00000191,0.00000270,0.00000717,-0.00000108,-0.00000080,0.0000
 0786,-0.00000271,-0.00000083,0.00000788,-0.00000472,0.00000512,0.00000
 605,0.00001692,0.00000514,0.00001452,-0.00002135,-0.00003773,-0.000012
 11\\\@


 Until you make peace with who you are,
 you'll never be content with what you have.
                           -- Doris Mortman
 Job cpu time:  0 days  6 hours  3 minutes 35.7 seconds.
 File lengths (MBytes):  RWF=    713 Int=      0 D2E=      0 Chk=     12 Scr=      1
 Normal termination of Gaussian 09 at Sat Feb 15 18:52:33 2014.
