 Entering Gaussian System, Link 0=/vol-th/home/you/softwares/gaussian/g09D01/g09/g09
 Input=C3H8_1_6_opt_B3LD3.gjf
 Output=C3H8_1_6_opt_B3LD3.log
 Initial command:
 /vol-th/home/you/softwares/gaussian/g09D01/g09/l1.exe "/vol-th/home/you/scratch/Gau-11629.inp" -scrdir="/vol-th/home/you/scratch/"
 Entering Link 1 = /vol-th/home/you/softwares/gaussian/g09D01/g09/l1.exe PID=     11630.
  
 Copyright (c) 1988,1990,1992,1993,1995,1998,2003,2009,2013,
            Gaussian, Inc.  All Rights Reserved.
  
 This is part of the Gaussian(R) 09 program.  It is based on
 the Gaussian(R) 03 system (copyright 2003, Gaussian, Inc.),
 the Gaussian(R) 98 system (copyright 1998, Gaussian, Inc.),
 the Gaussian(R) 94 system (copyright 1995, Gaussian, Inc.),
 the Gaussian 92(TM) system (copyright 1992, Gaussian, Inc.),
 the Gaussian 90(TM) system (copyright 1990, Gaussian, Inc.),
 the Gaussian 88(TM) system (copyright 1988, Gaussian, Inc.),
 the Gaussian 86(TM) system (copyright 1986, Carnegie Mellon
 University), and the Gaussian 82(TM) system (copyright 1983,
 Carnegie Mellon University). Gaussian is a federally registered
 trademark of Gaussian, Inc.
  
 This software contains proprietary and confidential information,
 including trade secrets, belonging to Gaussian, Inc.
  
 This software is provided under written license and may be
 used, copied, transmitted, or stored only in accord with that
 written license.
  
 The following legend is applicable only to US Government
 contracts under FAR:
  
                    RESTRICTED RIGHTS LEGEND
  
 Use, reproduction and disclosure by the US Government is
 subject to restrictions as set forth in subparagraphs (a)
 and (c) of the Commercial Computer Software - Restricted
 Rights clause in FAR 52.227-19.
  
 Gaussian, Inc.
 340 Quinnipiac St., Bldg. 40, Wallingford CT 06492
  
  
 ---------------------------------------------------------------
 Warning -- This program may not be used in any manner that
 competes with the business of Gaussian, Inc. or will provide
 assistance to any competitor of Gaussian, Inc.  The licensee
 of this program is prohibited from giving any competitor of
 Gaussian, Inc. access to this program.  By using this program,
 the user acknowledges that Gaussian, Inc. is engaged in the
 business of creating and licensing software in the field of
 computational chemistry and represents and warrants to the
 licensee that it is not a competitor of Gaussian, Inc. and that
 it will not use this program in any manner prohibited above.
 ---------------------------------------------------------------
  

 Cite this work as:
 Gaussian 09, Revision D.01,
 M. J. Frisch, G. W. Trucks, H. B. Schlegel, G. E. Scuseria, 
 M. A. Robb, J. R. Cheeseman, G. Scalmani, V. Barone, B. Mennucci, 
 G. A. Petersson, H. Nakatsuji, M. Caricato, X. Li, H. P. Hratchian, 
 A. F. Izmaylov, J. Bloino, G. Zheng, J. L. Sonnenberg, M. Hada, 
 M. Ehara, K. Toyota, R. Fukuda, J. Hasegawa, M. Ishida, T. Nakajima, 
 Y. Honda, O. Kitao, H. Nakai, T. Vreven, J. A. Montgomery, Jr., 
 J. E. Peralta, F. Ogliaro, M. Bearpark, J. J. Heyd, E. Brothers, 
 K. N. Kudin, V. N. Staroverov, T. Keith, R. Kobayashi, J. Normand, 
 K. Raghavachari, A. Rendell, J. C. Burant, S. S. Iyengar, J. Tomasi, 
 M. Cossi, N. Rega, J. M. Millam, M. Klene, J. E. Knox, J. B. Cross, 
 V. Bakken, C. Adamo, J. Jaramillo, R. Gomperts, R. E. Stratmann, 
 O. Yazyev, A. J. Austin, R. Cammi, C. Pomelli, J. W. Ochterski, 
 R. L. Martin, K. Morokuma, V. G. Zakrzewski, G. A. Voth, 
 P. Salvador, J. J. Dannenberg, S. Dapprich, A. D. Daniels, 
 O. Farkas, J. B. Foresman, J. V. Ortiz, J. Cioslowski, 
 and D. J. Fox, Gaussian, Inc., Wallingford CT, 2013.
 
 ******************************************
 Gaussian 09:  ES64L-G09RevD.01 24-Apr-2013
                30-Mar-2016 
 ******************************************
 %mem=16GB
 %nprocshared=12
 Will use up to   12 processors via shared memory.
 ----------------------------------------------------------------------
 #p B3LYP/6-31G(d) opt=tight int=ultrafine freq EmpiricalDispersion=GD3
 BJ
 ----------------------------------------------------------------------
 1/7=10,14=-1,18=20,19=15,26=4,38=1/1,3;
 2/9=110,12=2,17=6,18=5,40=1/2;
 3/5=1,6=6,7=1,11=2,16=1,25=1,30=1,71=1,74=-5,75=-5,124=41/1,2,3;
 4//1;
 5/5=2,38=5/2;
 6/7=2,8=2,9=2,10=2,28=1/1;
 7//1,2,3,16;
 1/7=10,14=-1,18=20,19=15,26=4/3(2);
 2/9=110/2;
 99//99;
 2/9=110/2;
 3/5=1,6=6,7=1,11=2,16=1,25=1,30=1,71=1,74=-5,75=-5,124=41/1,2,3;
 4/5=5,16=3,69=1/1;
 5/5=2,38=5/2;
 7//1,2,3,16;
 1/7=10,14=-1,18=20,19=15,26=4/3(-5);
 2/9=110/2;
 6/7=2,8=2,9=2,10=2,19=2,28=1/1;
 99/9=1/99;
 Leave Link    1 at Wed Mar 30 17:48:41 2016, MaxMem=  2147483648 cpu:         0.7
 (Enter /vol-th/home/you/softwares/gaussian/g09D01/g09/l101.exe)
 ---------------------------------------------
 using B3LYP/6-31G(d) to do opt and freq calc.
 ---------------------------------------------
 Symbolic Z-matrix:
 Charge =  0 Multiplicity = 1
 C                     0.        1.27421  -0.26028 
 H                    -0.8845    1.31549  -0.90784 
 H                     0.8845    1.31549  -0.90784 
 H                     0.        2.17483   0.36414 
 C                     0.        0.        0.58831 
 H                     0.87783   0.        1.2483 
 H                    -0.87783   0.        1.2483 
 C                     0.       -1.27421  -0.26028 
 H                     0.       -2.17483   0.36414 
 H                    -0.8845   -1.31549  -0.90784 
 H                     0.8845   -1.31549  -0.90784 
 
 NAtoms=     11 NQM=       11 NQMF=       0 NMMI=      0 NMMIF=      0
                NMic=       0 NMicF=      0.
                    Isotopes and Nuclear Properties:
 (Nuclear quadrupole moments (NQMom) in fm**2, nuclear magnetic moments (NMagM)
  in nuclear magnetons)

  Atom         1           2           3           4           5           6           7           8           9          10
 IAtWgt=          12           1           1           1          12           1           1          12           1           1
 AtmWgt=  12.0000000   1.0078250   1.0078250   1.0078250  12.0000000   1.0078250   1.0078250  12.0000000   1.0078250   1.0078250
 NucSpn=           0           1           1           1           0           1           1           0           1           1
 AtZEff=   0.0000000   0.0000000   0.0000000   0.0000000   0.0000000   0.0000000   0.0000000   0.0000000   0.0000000   0.0000000
 NQMom=    0.0000000   0.0000000   0.0000000   0.0000000   0.0000000   0.0000000   0.0000000   0.0000000   0.0000000   0.0000000
 NMagM=    0.0000000   2.7928460   2.7928460   2.7928460   0.0000000   2.7928460   2.7928460   0.0000000   2.7928460   2.7928460
 AtZNuc=   6.0000000   1.0000000   1.0000000   1.0000000   6.0000000   1.0000000   1.0000000   6.0000000   1.0000000   1.0000000

  Atom        11
 IAtWgt=           1
 AtmWgt=   1.0078250
 NucSpn=           1
 AtZEff=   0.0000000
 NQMom=    0.0000000
 NMagM=    2.7928460
 AtZNuc=   1.0000000
 Leave Link  101 at Wed Mar 30 17:48:41 2016, MaxMem=  2147483648 cpu:         5.0
 (Enter /vol-th/home/you/softwares/gaussian/g09D01/g09/l103.exe)

 GradGradGradGradGradGradGradGradGradGradGradGradGradGradGradGradGradGrad
 Berny optimization.
 Initialization pass.
                           ----------------------------
                           !    Initial Parameters    !
                           ! (Angstroms and Degrees)  !
 --------------------------                            --------------------------
 ! Name  Definition              Value          Derivative Info.                !
 --------------------------------------------------------------------------------
 ! R1    R(1,2)                  1.097          estimate D2E/DX2                !
 ! R2    R(1,3)                  1.097          estimate D2E/DX2                !
 ! R3    R(1,4)                  1.0959         estimate D2E/DX2                !
 ! R4    R(1,5)                  1.5309         estimate D2E/DX2                !
 ! R5    R(5,6)                  1.0983         estimate D2E/DX2                !
 ! R6    R(5,7)                  1.0983         estimate D2E/DX2                !
 ! R7    R(5,8)                  1.5309         estimate D2E/DX2                !
 ! R8    R(8,9)                  1.0959         estimate D2E/DX2                !
 ! R9    R(8,10)                 1.097          estimate D2E/DX2                !
 ! R10   R(8,11)                 1.097          estimate D2E/DX2                !
 ! A1    A(2,1,3)              107.4718         estimate D2E/DX2                !
 ! A2    A(2,1,4)              107.783          estimate D2E/DX2                !
 ! A3    A(2,1,5)              111.0101         estimate D2E/DX2                !
 ! A4    A(3,1,4)              107.783          estimate D2E/DX2                !
 ! A5    A(3,1,5)              111.0101         estimate D2E/DX2                !
 ! A6    A(4,1,5)              111.6033         estimate D2E/DX2                !
 ! A7    A(1,5,6)              109.4572         estimate D2E/DX2                !
 ! A8    A(1,5,7)              109.4572         estimate D2E/DX2                !
 ! A9    A(1,5,8)              112.6751         estimate D2E/DX2                !
 ! A10   A(6,5,7)              106.125          estimate D2E/DX2                !
 ! A11   A(6,5,8)              109.4572         estimate D2E/DX2                !
 ! A12   A(7,5,8)              109.4572         estimate D2E/DX2                !
 ! A13   A(5,8,9)              111.6033         estimate D2E/DX2                !
 ! A14   A(5,8,10)             111.0101         estimate D2E/DX2                !
 ! A15   A(5,8,11)             111.0101         estimate D2E/DX2                !
 ! A16   A(9,8,10)             107.783          estimate D2E/DX2                !
 ! A17   A(9,8,11)             107.783          estimate D2E/DX2                !
 ! A18   A(10,8,11)            107.4718         estimate D2E/DX2                !
 ! D1    D(2,1,5,6)           -178.2257         estimate D2E/DX2                !
 ! D2    D(2,1,5,7)            -62.3002         estimate D2E/DX2                !
 ! D3    D(2,1,5,8)             59.7371         estimate D2E/DX2                !
 ! D4    D(3,1,5,6)             62.3002         estimate D2E/DX2                !
 ! D5    D(3,1,5,7)            178.2257         estimate D2E/DX2                !
 ! D6    D(3,1,5,8)            -59.7371         estimate D2E/DX2                !
 ! D7    D(4,1,5,6)            -57.9627         estimate D2E/DX2                !
 ! D8    D(4,1,5,7)             57.9627         estimate D2E/DX2                !
 ! D9    D(4,1,5,8)            180.0            estimate D2E/DX2                !
 ! D10   D(1,5,8,9)            180.0            estimate D2E/DX2                !
 ! D11   D(1,5,8,10)           -59.7371         estimate D2E/DX2                !
 ! D12   D(1,5,8,11)            59.7371         estimate D2E/DX2                !
 ! D13   D(6,5,8,9)             57.9627         estimate D2E/DX2                !
 ! D14   D(6,5,8,10)           178.2257         estimate D2E/DX2                !
 ! D15   D(6,5,8,11)           -62.3002         estimate D2E/DX2                !
 ! D16   D(7,5,8,9)            -57.9627         estimate D2E/DX2                !
 ! D17   D(7,5,8,10)            62.3002         estimate D2E/DX2                !
 ! D18   D(7,5,8,11)          -178.2257         estimate D2E/DX2                !
 --------------------------------------------------------------------------------
 Trust Radius=3.00D-01 FncErr=1.00D-07 GrdErr=1.00D-06
 Number of steps in this run=     56 maximum allowed number of steps=    100.
 GradGradGradGradGradGradGradGradGradGradGradGradGradGradGradGradGradGrad

 Leave Link  103 at Wed Mar 30 17:48:42 2016, MaxMem=  2147483648 cpu:         0.2
 (Enter /vol-th/home/you/softwares/gaussian/g09D01/g09/l202.exe)
                          Input orientation:                          
 ---------------------------------------------------------------------
 Center     Atomic      Atomic             Coordinates (Angstroms)
 Number     Number       Type             X           Y           Z
 ---------------------------------------------------------------------
      1          6           0        0.000000    1.274208   -0.260279
      2          1           0       -0.884497    1.315494   -0.907839
      3          1           0        0.884497    1.315494   -0.907839
      4          1           0        0.000000    2.174825    0.364135
      5          6           0        0.000000    0.000000    0.588306
      6          1           0        0.877830    0.000000    1.248298
      7          1           0       -0.877830    0.000000    1.248298
      8          6           0        0.000000   -1.274208   -0.260279
      9          1           0        0.000000   -2.174825    0.364135
     10          1           0       -0.884497   -1.315494   -0.907839
     11          1           0        0.884497   -1.315494   -0.907839
 ---------------------------------------------------------------------
                    Distance matrix (angstroms):
                    1          2          3          4          5
     1  C    0.000000
     2  H    1.096984   0.000000
     3  H    1.096984   1.768994   0.000000
     4  H    1.095903   1.771638   1.771638   0.000000
     5  C    1.530916   2.179750   2.179750   2.186348   0.000000
     6  H    2.161017   3.079813   2.525766   2.506430   1.098260
     7  H    2.161017   2.525766   3.079813   2.506430   1.098260
     8  C    2.548416   2.812157   2.812157   3.505099   1.530916
     9  H    3.505099   3.818714   3.818714   4.349650   2.186348
    10  H    2.812157   2.630988   3.170400   3.818714   2.179750
    11  H    2.812157   3.170400   2.630988   3.818714   2.179750
                    6          7          8          9         10
     6  H    0.000000
     7  H    1.755660   0.000000
     8  C    2.161017   2.161017   0.000000
     9  H    2.506430   2.506430   1.095903   0.000000
    10  H    3.079813   2.525766   1.096984   1.771638   0.000000
    11  H    2.525766   3.079813   1.096984   1.771638   1.768994
                   11
    11  H    0.000000
 Stoichiometry    C3H8
 Framework group  C2V[C2(C),SGV(C2H2),SGV'(H2),X(H4)]
 Deg. of freedom     9
 Full point group                 C2V     NOp   4
 Largest Abelian subgroup         C2V     NOp   4
 Largest concise Abelian subgroup C2V     NOp   4
                         Standard orientation:                         
 ---------------------------------------------------------------------
 Center     Atomic      Atomic             Coordinates (Angstroms)
 Number     Number       Type             X           Y           Z
 ---------------------------------------------------------------------
      1          6           0        0.000000    1.274208   -0.260279
      2          1           0       -0.884497    1.315494   -0.907839
      3          1           0        0.884497    1.315494   -0.907839
      4          1           0        0.000000    2.174825    0.364135
      5          6           0        0.000000    0.000000    0.588306
      6          1           0        0.877830    0.000000    1.248298
      7          1           0       -0.877830    0.000000    1.248298
      8          6           0        0.000000   -1.274208   -0.260279
      9          1           0        0.000000   -2.174825    0.364135
     10          1           0       -0.884497   -1.315494   -0.907839
     11          1           0        0.884497   -1.315494   -0.907839
 ---------------------------------------------------------------------
 Rotational constants (GHZ):     29.3600929      8.3972855      7.4339434
 Leave Link  202 at Wed Mar 30 17:48:42 2016, MaxMem=  2147483648 cpu:         0.1
 (Enter /vol-th/home/you/softwares/gaussian/g09D01/g09/l301.exe)
 Standard basis: 6-31G(d) (6D, 7F)
 Ernie: Thresh=  0.10000D-02 Tol=  0.10000D-05 Strict=F.
 There are    25 symmetry adapted cartesian basis functions of A1  symmetry.
 There are     7 symmetry adapted cartesian basis functions of A2  symmetry.
 There are    11 symmetry adapted cartesian basis functions of B1  symmetry.
 There are    18 symmetry adapted cartesian basis functions of B2  symmetry.
 There are    25 symmetry adapted basis functions of A1  symmetry.
 There are     7 symmetry adapted basis functions of A2  symmetry.
 There are    11 symmetry adapted basis functions of B1  symmetry.
 There are    18 symmetry adapted basis functions of B2  symmetry.
    61 basis functions,   116 primitive gaussians,    61 cartesian basis functions
    13 alpha electrons       13 beta electrons
       nuclear repulsion energy        82.3289177152 Hartrees.
 IExCor=  402 DFT=T Ex+Corr=B3LYP ExCW=0 ScaHFX=  0.200000
 ScaDFX=  0.800000  0.720000  1.000000  0.810000 ScalE2=  1.000000  1.000000
 IRadAn=      5 IRanWt=     -1 IRanGd=            0 ICorTp=0 IEmpDi=141
 NAtoms=   11 NActive=   11 NUniq=    5 SFac= 4.00D+00 NAtFMM=   60 NAOKFM=F Big=F
 Integral buffers will be    131072 words long.
 Raffenetti 2 integral format.
 Two-electron integral symmetry is turned on.
 R6Disp:  Grimme-D3(BJ) Dispersion energy=       -0.0099051494 Hartrees.
 Nuclear repulsion after empirical dispersion term =       82.3190125658 Hartrees.
 Leave Link  301 at Wed Mar 30 17:48:42 2016, MaxMem=  2147483648 cpu:         0.7
 (Enter /vol-th/home/you/softwares/gaussian/g09D01/g09/l302.exe)
 NPDir=0 NMtPBC=     1 NCelOv=     1 NCel=       1 NClECP=     1 NCelD=      1
         NCelK=      1 NCelE2=     1 NClLst=     1 CellRange=     0.0.
 One-electron integrals computed using PRISM.
 One-electron integral symmetry used in STVInt
 NBasis=    61 RedAO= T EigKep=  8.41D-03  NBF=    25     7    11    18
 NBsUse=    61 1.00D-06 EigRej= -1.00D+00 NBFU=    25     7    11    18
 Precomputing XC quadrature grid using
 IXCGrd= 4 IRadAn=           5 IRanWt=          -1 IRanGd=           0 AccXCQ= 0.00D+00.
 Generated NRdTot=       0 NPtTot=           0 NUsed=           0 NTot=          32
 NSgBfM=    61    61    61    61    61 MxSgAt=    11 MxSgA2=    11.
 Leave Link  302 at Wed Mar 30 17:48:42 2016, MaxMem=  2147483648 cpu:         1.9
 (Enter /vol-th/home/you/softwares/gaussian/g09D01/g09/l303.exe)
 DipDrv:  MaxL=1.
 Leave Link  303 at Wed Mar 30 17:48:42 2016, MaxMem=  2147483648 cpu:         0.3
 (Enter /vol-th/home/you/softwares/gaussian/g09D01/g09/l401.exe)
 ExpMin= 1.61D-01 ExpMax= 3.05D+03 ExpMxC= 4.57D+02 IAcc=3 IRadAn=         5 AccDes= 0.00D+00
 Harris functional with IExCor=  402 and IRadAn=       5 diagonalized for initial guess.
 HarFok:  IExCor=  402 AccDes= 0.00D+00 IRadAn=         5 IDoV= 1 UseB2=F ITyADJ=14
 ICtDFT=  3500011 ScaDFX=  1.000000  1.000000  1.000000  1.000000
 FoFCou: FMM=F IPFlag=           0 FMFlag=      100000 FMFlg1=           0
         NFxFlg=           0 DoJE=T BraDBF=F KetDBF=T FulRan=T
         wScrn=  0.000000 ICntrl=     500 IOpCl=  0 I1Cent=   200000004 NGrid=           0
         NMat0=    1 NMatS0=      1 NMatT0=    0 NMatD0=    1 NMtDS0=    0 NMtDT0=    0
 Petite list used in FoFCou.
 Harris En= -119.213064237287    
 JPrj=0 DoOrth=F DoCkMO=F.
 Initial guess orbital symmetries:
       Occupied  (B2) (A1) (A1) (A1) (B2) (A1) (B1) (A1) (B2) (A2)
                 (B2) (A1) (B1)
       Virtual   (A1) (B1) (A1) (B2) (A1) (B2) (A2) (A1) (B1) (B2)
                 (A1) (B2) (B1) (A1) (A2) (A1) (B2) (B1) (B2) (A1)
                 (B1) (B2) (A1) (A2) (B1) (A1) (B2) (A1) (B2) (A2)
                 (A1) (A1) (B2) (B1) (B2) (A1) (A2) (A1) (B1) (B2)
                 (B1) (A2) (A1) (A1) (B2) (A1) (B2) (A1)
 The electronic state of the initial guess is 1-A1.
 Leave Link  401 at Wed Mar 30 17:48:42 2016, MaxMem=  2147483648 cpu:         1.9
 (Enter /vol-th/home/you/softwares/gaussian/g09D01/g09/l502.exe)
 Closed shell SCF:
 Using DIIS extrapolation, IDIIS=  1040.
 Integral symmetry usage will be decided dynamically.
 Keep R1 ints in memory in symmetry-blocked form, NReq=2709398.
 IVT=       31201 IEndB=       31201 NGot=  2147483648 MDV=  2146983506
 LenX=  2146983506 LenY=  2146979344
 Requested convergence on RMS density matrix=1.00D-08 within 128 cycles.
 Requested convergence on MAX density matrix=1.00D-06.
 Requested convergence on             energy=1.00D-06.
 No special actions if energy rises.
 FoFCou: FMM=F IPFlag=           0 FMFlag=           0 FMFlg1=           0
         NFxFlg=           0 DoJE=F BraDBF=F KetDBF=F FulRan=T
         wScrn=  0.000000 ICntrl=     600 IOpCl=  0 I1Cent=           0 NGrid=           0
         NMat0=    1 NMatS0=   1891 NMatT0=    0 NMatD0=    1 NMtDS0=    0 NMtDT0=    0
 Petite list used in FoFCou.
 Integral accuracy reduced to 1.0D-05 until final iterations.

 Cycle   1  Pass 0  IDiag  1:
 E= -118.989404574277    
 DIIS: error= 5.38D-02 at cycle   1 NSaved=   1.
 NSaved= 1 IEnMin= 1 EnMin= -118.989404574277     IErMin= 1 ErrMin= 5.38D-02
 ErrMax= 5.38D-02  0.00D+00 EMaxC= 1.00D-01 BMatC= 1.46D-01 BMatP= 1.46D-01
 IDIUse=3 WtCom= 4.62D-01 WtEn= 5.38D-01
 Coeff-Com:  0.100D+01
 Coeff-En:   0.100D+01
 Coeff:      0.100D+01
 Gap=     0.344 Goal=   None    Shift=    0.000
 GapD=    0.344 DampG=1.000 DampE=0.500 DampFc=0.5000 IDamp=-1.
 Damping current iteration by 5.00D-01
 RMSDP=1.38D-02 MaxDP=1.40D-01              OVMax= 1.85D-01

 Cycle   2  Pass 0  IDiag  1:
 E= -119.062302100393     Delta-E=       -0.072897526117 Rises=F Damp=T
 DIIS: error= 1.10D-02 at cycle   2 NSaved=   2.
 NSaved= 2 IEnMin= 2 EnMin= -119.062302100393     IErMin= 2 ErrMin= 1.10D-02
 ErrMax= 1.10D-02  0.00D+00 EMaxC= 1.00D-01 BMatC= 5.59D-03 BMatP= 1.46D-01
 IDIUse=3 WtCom= 8.90D-01 WtEn= 1.10D-01
 Coeff-Com:  0.862D-01 0.914D+00
 Coeff-En:   0.136D+00 0.864D+00
 Coeff:      0.917D-01 0.908D+00
 Gap=     0.414 Goal=   None    Shift=    0.000
 RMSDP=1.73D-03 MaxDP=1.96D-02 DE=-7.29D-02 OVMax= 1.01D-01

 Cycle   3  Pass 0  IDiag  1:
 E= -119.153817954242     Delta-E=       -0.091515853849 Rises=F Damp=F
 DIIS: error= 2.46D-03 at cycle   3 NSaved=   3.
 NSaved= 3 IEnMin= 3 EnMin= -119.153817954242     IErMin= 3 ErrMin= 2.46D-03
 ErrMax= 2.46D-03  0.00D+00 EMaxC= 1.00D-01 BMatC= 3.46D-04 BMatP= 5.59D-03
 IDIUse=3 WtCom= 9.75D-01 WtEn= 2.46D-02
 Coeff-Com:  0.806D-02 0.143D+00 0.849D+00
 Coeff-En:   0.000D+00 0.000D+00 0.100D+01
 Coeff:      0.786D-02 0.139D+00 0.853D+00
 Gap=     0.420 Goal=   None    Shift=    0.000
 RMSDP=4.21D-04 MaxDP=4.68D-03 DE=-9.15D-02 OVMax= 6.26D-03

 Cycle   4  Pass 0  IDiag  1:
 E= -119.154049577301     Delta-E=       -0.000231623058 Rises=F Damp=F
 DIIS: error= 1.57D-03 at cycle   4 NSaved=   4.
 NSaved= 4 IEnMin= 4 EnMin= -119.154049577301     IErMin= 4 ErrMin= 1.57D-03
 ErrMax= 1.57D-03  0.00D+00 EMaxC= 1.00D-01 BMatC= 1.03D-04 BMatP= 3.46D-04
 IDIUse=3 WtCom= 9.84D-01 WtEn= 1.57D-02
 Coeff-Com:  0.122D-02 0.177D-01 0.352D+00 0.629D+00
 Coeff-En:   0.000D+00 0.000D+00 0.142D+00 0.858D+00
 Coeff:      0.120D-02 0.175D-01 0.349D+00 0.633D+00
 Gap=     0.421 Goal=   None    Shift=    0.000
 RMSDP=1.65D-04 MaxDP=2.65D-03 DE=-2.32D-04 OVMax= 2.85D-03

 Cycle   5  Pass 0  IDiag  1:
 E= -119.154138828039     Delta-E=       -0.000089250738 Rises=F Damp=F
 DIIS: error= 3.60D-04 at cycle   5 NSaved=   5.
 NSaved= 5 IEnMin= 5 EnMin= -119.154138828039     IErMin= 5 ErrMin= 3.60D-04
 ErrMax= 3.60D-04  0.00D+00 EMaxC= 1.00D-01 BMatC= 9.03D-06 BMatP= 1.03D-04
 IDIUse=3 WtCom= 9.96D-01 WtEn= 3.60D-03
 Coeff-Com:  0.397D-03-0.171D-02 0.106D+00 0.297D+00 0.598D+00
 Coeff-En:   0.000D+00 0.000D+00 0.000D+00 0.000D+00 0.100D+01
 Coeff:      0.396D-03-0.171D-02 0.105D+00 0.296D+00 0.600D+00
 Gap=     0.421 Goal=   None    Shift=    0.000
 RMSDP=4.19D-05 MaxDP=7.13D-04 DE=-8.93D-05 OVMax= 8.43D-04

 Cycle   6  Pass 0  IDiag  1:
 E= -119.154147243972     Delta-E=       -0.000008415934 Rises=F Damp=F
 DIIS: error= 2.86D-05 at cycle   6 NSaved=   6.
 NSaved= 6 IEnMin= 6 EnMin= -119.154147243972     IErMin= 6 ErrMin= 2.86D-05
 ErrMax= 2.86D-05  0.00D+00 EMaxC= 1.00D-01 BMatC= 4.46D-08 BMatP= 9.03D-06
 IDIUse=1 WtCom= 1.00D+00 WtEn= 0.00D+00
 Coeff-Com:  0.171D-03-0.872D-03 0.215D-01 0.671D-01 0.162D+00 0.750D+00
 Coeff:      0.171D-03-0.872D-03 0.215D-01 0.671D-01 0.162D+00 0.750D+00
 Gap=     0.421 Goal=   None    Shift=    0.000
 RMSDP=5.26D-06 MaxDP=4.36D-05 DE=-8.42D-06 OVMax= 7.20D-05

 Initial convergence to 1.0D-05 achieved.  Increase integral accuracy.
 Cycle   7  Pass 1  IDiag  1:
 E= -119.154141069693     Delta-E=        0.000006174279 Rises=F Damp=F
 DIIS: error= 2.88D-06 at cycle   1 NSaved=   1.
 NSaved= 1 IEnMin= 1 EnMin= -119.154141069693     IErMin= 1 ErrMin= 2.88D-06
 ErrMax= 2.88D-06  0.00D+00 EMaxC= 1.00D-01 BMatC= 8.35D-10 BMatP= 8.35D-10
 IDIUse=1 WtCom= 1.00D+00 WtEn= 0.00D+00
 Coeff-Com:  0.100D+01
 Coeff:      0.100D+01
 Gap=     0.421 Goal=   None    Shift=    0.000
 RMSDP=5.26D-06 MaxDP=4.36D-05 DE= 6.17D-06 OVMax= 1.60D-05

 Cycle   8  Pass 1  IDiag  1:
 E= -119.154141070389     Delta-E=       -0.000000000696 Rises=F Damp=F
 DIIS: error= 1.87D-06 at cycle   2 NSaved=   2.
 NSaved= 2 IEnMin= 2 EnMin= -119.154141070389     IErMin= 2 ErrMin= 1.87D-06
 ErrMax= 1.87D-06  0.00D+00 EMaxC= 1.00D-01 BMatC= 3.17D-10 BMatP= 8.35D-10
 IDIUse=1 WtCom= 1.00D+00 WtEn= 0.00D+00
 Coeff-Com:  0.365D+00 0.635D+00
 Coeff:      0.365D+00 0.635D+00
 Gap=     0.421 Goal=   None    Shift=    0.000
 RMSDP=3.95D-07 MaxDP=3.87D-06 DE=-6.96D-10 OVMax= 6.88D-06

 Cycle   9  Pass 1  IDiag  1:
 E= -119.154141070704     Delta-E=       -0.000000000316 Rises=F Damp=F
 DIIS: error= 7.85D-07 at cycle   3 NSaved=   3.
 NSaved= 3 IEnMin= 3 EnMin= -119.154141070704     IErMin= 3 ErrMin= 7.85D-07
 ErrMax= 7.85D-07  0.00D+00 EMaxC= 1.00D-01 BMatC= 3.33D-11 BMatP= 3.17D-10
 IDIUse=1 WtCom= 1.00D+00 WtEn= 0.00D+00
 Coeff-Com:  0.919D-01 0.279D+00 0.629D+00
 Coeff:      0.919D-01 0.279D+00 0.629D+00
 Gap=     0.421 Goal=   None    Shift=    0.000
 RMSDP=9.60D-08 MaxDP=1.18D-06 DE=-3.16D-10 OVMax= 1.51D-06

 Cycle  10  Pass 1  IDiag  1:
 E= -119.154141070737     Delta-E=       -0.000000000033 Rises=F Damp=F
 DIIS: error= 1.32D-07 at cycle   4 NSaved=   4.
 NSaved= 4 IEnMin= 4 EnMin= -119.154141070737     IErMin= 4 ErrMin= 1.32D-07
 ErrMax= 1.32D-07  0.00D+00 EMaxC= 1.00D-01 BMatC= 1.07D-12 BMatP= 3.33D-11
 IDIUse=1 WtCom= 1.00D+00 WtEn= 0.00D+00
 Coeff-Com: -0.329D-02 0.304D-01 0.185D+00 0.788D+00
 Coeff:     -0.329D-02 0.304D-01 0.185D+00 0.788D+00
 Gap=     0.421 Goal=   None    Shift=    0.000
 RMSDP=2.10D-08 MaxDP=2.31D-07 DE=-3.27D-11 OVMax= 3.55D-07

 Cycle  11  Pass 1  IDiag  1:
 E= -119.154141070738     Delta-E=       -0.000000000001 Rises=F Damp=F
 DIIS: error= 2.21D-08 at cycle   5 NSaved=   5.
 NSaved= 5 IEnMin= 5 EnMin= -119.154141070738     IErMin= 5 ErrMin= 2.21D-08
 ErrMax= 2.21D-08  0.00D+00 EMaxC= 1.00D-01 BMatC= 2.98D-14 BMatP= 1.07D-12
 IDIUse=1 WtCom= 1.00D+00 WtEn= 0.00D+00
 Coeff-Com: -0.361D-02 0.253D-02 0.413D-01 0.246D+00 0.714D+00
 Coeff:     -0.361D-02 0.253D-02 0.413D-01 0.246D+00 0.714D+00
 Gap=     0.421 Goal=   None    Shift=    0.000
 RMSDP=3.65D-09 MaxDP=4.90D-08 DE=-5.12D-13 OVMax= 5.33D-08

 SCF Done:  E(RB3LYP) =  -119.154141071     A.U. after   11 cycles
            NFock= 11  Conv=0.36D-08     -V/T= 2.0107
 KE= 1.178940468630D+02 PE=-4.392455729823D+02 EE= 1.198783724828D+02
 Leave Link  502 at Wed Mar 30 17:48:43 2016, MaxMem=  2147483648 cpu:         7.2
 (Enter /vol-th/home/you/softwares/gaussian/g09D01/g09/l601.exe)
 Copying SCF densities to generalized density rwf, IOpCl= 0 IROHF=0.

 **********************************************************************

            Population analysis using the SCF density.

 **********************************************************************

 Orbital symmetries:
       Occupied  (A1) (B2) (A1) (A1) (B2) (A1) (B1) (A1) (B2) (A2)
                 (B2) (A1) (B1)
       Virtual   (A1) (B1) (A1) (B2) (A1) (B1) (A2) (B2) (A1) (B2)
                 (A1) (B2) (B1) (A1) (A2) (A1) (B2) (B1) (B2) (B1)
                 (A1) (B2) (A2) (A1) (B1) (A1) (B2) (A1) (B2) (A2)
                 (A1) (A1) (B2) (B1) (B2) (A1) (A2) (A1) (B1) (B2)
                 (B1) (A2) (A1) (A1) (B2) (A1) (B2) (A1)
 The electronic state is 1-A1.
 Alpha  occ. eigenvalues --  -10.17800 -10.16981 -10.16980  -0.77448  -0.67554
 Alpha  occ. eigenvalues --   -0.58023  -0.45194  -0.43144  -0.39330  -0.37652
 Alpha  occ. eigenvalues --   -0.33303  -0.33272  -0.32453
 Alpha virt. eigenvalues --    0.09606   0.14781   0.15001   0.15031   0.17052
 Alpha virt. eigenvalues --    0.19386   0.19484   0.19722   0.22834   0.26671
 Alpha virt. eigenvalues --    0.51267   0.51826   0.54848   0.55954   0.58351
 Alpha virt. eigenvalues --    0.66862   0.70262   0.73901   0.78976   0.87350
 Alpha virt. eigenvalues --    0.88558   0.89119   0.91365   0.92168   0.95786
 Alpha virt. eigenvalues --    0.96940   0.98304   1.03539   1.38928   1.46431
 Alpha virt. eigenvalues --    1.48087   1.56355   1.74376   1.90461   1.92554
 Alpha virt. eigenvalues --    1.97244   2.03985   2.09477   2.23407   2.25593
 Alpha virt. eigenvalues --    2.32907   2.38609   2.41712   2.57100   2.67453
 Alpha virt. eigenvalues --    4.13837   4.27854   4.46013
          Condensed to atoms (all electrons):
               1          2          3          4          5          6
     1  C    5.054639   0.377980   0.377980   0.373465   0.384670  -0.039554
     2  H    0.377980   0.580590  -0.033164  -0.031190  -0.035846   0.005349
     3  H    0.377980  -0.033164   0.580590  -0.031190  -0.035846  -0.004629
     4  H    0.373465  -0.031190  -0.031190   0.577707  -0.028758  -0.002743
     5  C    0.384670  -0.035846  -0.035846  -0.028758   4.909436   0.381648
     6  H   -0.039554   0.005349  -0.004629  -0.002743   0.381648   0.608174
     7  H   -0.039554  -0.004629   0.005349  -0.002743   0.381648  -0.039711
     8  C   -0.051558  -0.004099  -0.004099   0.004663   0.384670  -0.039554
     9  H    0.004663  -0.000024  -0.000024  -0.000177  -0.028758  -0.002743
    10  H   -0.004099   0.004860  -0.000359  -0.000024  -0.035846   0.005349
    11  H   -0.004099  -0.000359   0.004860  -0.000024  -0.035846  -0.004629
               7          8          9         10         11
     1  C   -0.039554  -0.051558   0.004663  -0.004099  -0.004099
     2  H   -0.004629  -0.004099  -0.000024   0.004860  -0.000359
     3  H    0.005349  -0.004099  -0.000024  -0.000359   0.004860
     4  H   -0.002743   0.004663  -0.000177  -0.000024  -0.000024
     5  C    0.381648   0.384670  -0.028758  -0.035846  -0.035846
     6  H   -0.039711  -0.039554  -0.002743   0.005349  -0.004629
     7  H    0.608174  -0.039554  -0.002743  -0.004629   0.005349
     8  C   -0.039554   5.054639   0.373465   0.377980   0.377980
     9  H   -0.002743   0.373465   0.577707  -0.031190  -0.031190
    10  H   -0.004629   0.377980  -0.031190   0.580590  -0.033164
    11  H    0.005349   0.377980  -0.031190  -0.033164   0.580590
 Mulliken charges:
               1
     1  C   -0.434535
     2  H    0.140532
     3  H    0.140532
     4  H    0.141013
     5  C   -0.241172
     6  H    0.133044
     7  H    0.133044
     8  C   -0.434535
     9  H    0.141013
    10  H    0.140532
    11  H    0.140532
 Sum of Mulliken charges =   0.00000
 Mulliken charges with hydrogens summed into heavy atoms:
               1
     1  C   -0.012458
     5  C    0.024916
     8  C   -0.012458
 Electronic spatial extent (au):  <R**2>=            227.0336
 Charge=              0.0000 electrons
 Dipole moment (field-independent basis, Debye):
    X=              0.0000    Y=              0.0000    Z=              0.0548  Tot=              0.0548
 Quadrupole moment (field-independent basis, Debye-Ang):
   XX=            -21.2306   YY=            -21.8980   ZZ=            -21.5817
   XY=              0.0000   XZ=              0.0000   YZ=              0.0000
 Traceless Quadrupole moment (field-independent basis, Debye-Ang):
   XX=              0.3395   YY=             -0.3279   ZZ=             -0.0116
   XY=              0.0000   XZ=              0.0000   YZ=              0.0000
 Octapole moment (field-independent basis, Debye-Ang**2):
  XXX=              0.0000  YYY=              0.0000  ZZZ=              0.1881  XYY=              0.0000
  XXY=              0.0000  XXZ=             -0.4621  XZZ=              0.0000  YZZ=              0.0000
  YYZ=              1.2659  XYZ=              0.0000
 Hexadecapole moment (field-independent basis, Debye-Ang**3):
 XXXX=            -42.4932 YYYY=           -200.1315 ZZZZ=            -69.2731 XXXY=              0.0000
 XXXZ=              0.0000 YYYX=              0.0000 YYYZ=              0.0000 ZZZX=              0.0000
 ZZZY=              0.0000 XXYY=            -41.2171 XXZZ=            -16.8352 YYZZ=            -44.6309
 XXYZ=              0.0000 YYXZ=              0.0000 ZZXY=              0.0000
 N-N= 8.231901256580D+01 E-N=-4.392455744499D+02  KE= 1.178940468630D+02
 Symmetry A1   KE= 7.295616531203D+01
 Symmetry A2   KE= 2.018985603717D+00
 Symmetry B1   KE= 3.845373831360D+00
 Symmetry B2   KE= 3.907352211588D+01
 No NMR shielding tensors so no spin-rotation constants.
 Leave Link  601 at Wed Mar 30 17:48:43 2016, MaxMem=  2147483648 cpu:         1.5
 (Enter /vol-th/home/you/softwares/gaussian/g09D01/g09/l701.exe)
 Compute integral first derivatives.
 ... and contract with generalized density number  0.
 R6Disp: Adding Grimme-D3(BJ) dispersion energy 1st derivatives to the gradient.
 Leave Link  701 at Wed Mar 30 17:48:43 2016, MaxMem=  2147483648 cpu:         1.6
 (Enter /vol-th/home/you/softwares/gaussian/g09D01/g09/l702.exe)
 L702 exits ... SP integral derivatives will be done elsewhere.
 Leave Link  702 at Wed Mar 30 17:48:43 2016, MaxMem=  2147483648 cpu:         0.3
 (Enter /vol-th/home/you/softwares/gaussian/g09D01/g09/l703.exe)
 Compute integral first derivatives, UseDBF=F ICtDFT=           0.
 Integral derivatives from FoFJK, PRISM(SPDF).
 Calling FoFJK, ICntrl=      2127 FMM=F ISym2X=1 I1Cent= 0 IOpClX= 0 NMat=1 NMatS=1 NMatT=0.
 FoFJK:  IHMeth= 1 ICntrl=    2127 DoSepK=F KAlg= 0 I1Cent=   0 FoldK=F
 IRaf=         0 NMat=   1 IRICut=       1 DoRegI=T DoRafI=F ISym2E= 1.
 FoFCou: FMM=F IPFlag=           0 FMFlag=      100000 FMFlg1=         800
         NFxFlg=           0 DoJE=F BraDBF=F KetDBF=F FulRan=T
         wScrn=  0.000000 ICntrl=    2127 IOpCl=  0 I1Cent=           0 NGrid=           0
         NMat0=    1 NMatS0=      1 NMatT0=    0 NMatD0=    1 NMtDS0=    0 NMtDT0=    0
 Petite list used in FoFCou.
 Leave Link  703 at Wed Mar 30 17:48:43 2016, MaxMem=  2147483648 cpu:         3.3
 (Enter /vol-th/home/you/softwares/gaussian/g09D01/g09/l716.exe)
 Dipole        = 0.00000000D+00-2.66453526D-15 2.15589279D-02
 ***** Axes restored to original set *****
 -------------------------------------------------------------------
 Center     Atomic                   Forces (Hartrees/Bohr)
 Number     Number              X              Y              Z
 -------------------------------------------------------------------
      1        6           0.000000000   -0.000010002    0.000018460
      2        1          -0.000012657    0.000020086   -0.000008263
      3        1           0.000012657    0.000020086   -0.000008263
      4        1           0.000000000    0.000002152   -0.000014203
      5        6           0.000000000    0.000000000    0.000018715
      6        1           0.000004986    0.000000000    0.000002911
      7        1          -0.000004986    0.000000000    0.000002911
      8        6           0.000000000    0.000010002    0.000018460
      9        1           0.000000000   -0.000002152   -0.000014203
     10        1          -0.000012657   -0.000020086   -0.000008263
     11        1           0.000012657   -0.000020086   -0.000008263
 -------------------------------------------------------------------
 Cartesian Forces:  Max     0.000020086 RMS     0.000011334
 Leave Link  716 at Wed Mar 30 17:48:43 2016, MaxMem=  2147483648 cpu:         0.3
 (Enter /vol-th/home/you/softwares/gaussian/g09D01/g09/l103.exe)

 GradGradGradGradGradGradGradGradGradGradGradGradGradGradGradGradGradGrad
 Berny optimization.
 FormGI is forming the generalized inverse of G from B-inverse, IUseBI=4.
 Internal  Forces:  Max     0.000033703 RMS     0.000013288
 Search for a local minimum.
 Step number   1 out of a maximum of   56
 All quantities printed in internal units (Hartrees-Bohrs-Radians)
 RMS Force = .13288D-04 SwitMx=.10000D-02 MixMth= 2
 Mixed Optimization -- En-DIIS/RFO-DIIS
 Second derivative matrix not updated -- first step.
 ITU=  0
     Eigenvalues ---    0.00357   0.00357   0.03505   0.04815   0.05437
     Eigenvalues ---    0.05437   0.05521   0.05521   0.08354   0.12219
     Eigenvalues ---    0.16000   0.16000   0.16000   0.16000   0.16000
     Eigenvalues ---    0.16000   0.21890   0.29339   0.29339   0.33875
     Eigenvalues ---    0.33875   0.34018   0.34018   0.34018   0.34018
     Eigenvalues ---    0.34139   0.34139
 RFO step:  Lambda=-4.39250674D-08 EMin= 3.56993511D-03
 Linear search not attempted -- first point.
 Iteration  1 RMS(Cart)=  0.00019836 RMS(Int)=  0.00000002
 Iteration  2 RMS(Cart)=  0.00000002 RMS(Int)=  0.00000001
 ITry= 1 IFail=0 DXMaxC= 6.39D-04 DCOld= 1.00D+10 DXMaxT= 3.00D-01 DXLimC= 3.00D+00 Rises=F
 ClnCor:  largest displacement from symmetrization is 2.69D-12 for atom     9.
 Variable       Old X    -DE/DX   Delta X   Delta X   Delta X     New X
                                 (Linear)    (Quad)   (Total)
    R1        2.07300   0.00002   0.00000   0.00005   0.00005   2.07305
    R2        2.07300   0.00002   0.00000   0.00005   0.00005   2.07305
    R3        2.07096  -0.00001   0.00000  -0.00002  -0.00002   2.07094
    R4        2.89301   0.00003   0.00000   0.00011   0.00011   2.89313
    R5        2.07541   0.00001   0.00000   0.00002   0.00002   2.07543
    R6        2.07541   0.00001   0.00000   0.00002   0.00002   2.07543
    R7        2.89301   0.00003   0.00000   0.00011   0.00011   2.89313
    R8        2.07096  -0.00001   0.00000  -0.00002  -0.00002   2.07094
    R9        2.07300   0.00002   0.00000   0.00005   0.00005   2.07305
   R10        2.07300   0.00002   0.00000   0.00005   0.00005   2.07305
    A1        1.87574  -0.00001   0.00000   0.00000   0.00000   1.87574
    A2        1.88117  -0.00002   0.00000  -0.00015  -0.00015   1.88102
    A3        1.93749   0.00002   0.00000   0.00014   0.00014   1.93763
    A4        1.88117  -0.00002   0.00000  -0.00015  -0.00015   1.88102
    A5        1.93749   0.00002   0.00000   0.00014   0.00014   1.93763
    A6        1.94784   0.00001   0.00000   0.00001   0.00001   1.94785
    A7        1.91039  -0.00001   0.00000  -0.00003  -0.00003   1.91035
    A8        1.91039  -0.00001   0.00000  -0.00003  -0.00003   1.91035
    A9        1.96655   0.00003   0.00000   0.00015   0.00015   1.96670
   A10        1.85223   0.00000   0.00000  -0.00002  -0.00002   1.85221
   A11        1.91039  -0.00001   0.00000  -0.00003  -0.00003   1.91035
   A12        1.91039  -0.00001   0.00000  -0.00003  -0.00003   1.91035
   A13        1.94784   0.00001   0.00000   0.00001   0.00001   1.94785
   A14        1.93749   0.00002   0.00000   0.00014   0.00014   1.93763
   A15        1.93749   0.00002   0.00000   0.00014   0.00014   1.93763
   A16        1.88117  -0.00002   0.00000  -0.00015  -0.00015   1.88102
   A17        1.88117  -0.00002   0.00000  -0.00015  -0.00015   1.88102
   A18        1.87574  -0.00001   0.00000   0.00000   0.00000   1.87574
    D1       -3.11062   0.00001   0.00000   0.00012   0.00012  -3.11050
    D2       -1.08734   0.00000   0.00000   0.00006   0.00006  -1.08729
    D3        1.04261   0.00000   0.00000   0.00009   0.00009   1.04270
    D4        1.08734   0.00000   0.00000  -0.00006  -0.00006   1.08729
    D5        3.11062  -0.00001   0.00000  -0.00012  -0.00012   3.11050
    D6       -1.04261   0.00000   0.00000  -0.00009  -0.00009  -1.04270
    D7       -1.01164   0.00000   0.00000   0.00003   0.00003  -1.01161
    D8        1.01164   0.00000   0.00000  -0.00003  -0.00003   1.01161
    D9        3.14159   0.00000   0.00000   0.00000   0.00000   3.14159
   D10        3.14159   0.00000   0.00000   0.00000   0.00000   3.14159
   D11       -1.04261   0.00000   0.00000  -0.00009  -0.00009  -1.04270
   D12        1.04261   0.00000   0.00000   0.00009   0.00009   1.04270
   D13        1.01164   0.00000   0.00000  -0.00003  -0.00003   1.01161
   D14        3.11062  -0.00001   0.00000  -0.00012  -0.00012   3.11050
   D15       -1.08734   0.00000   0.00000   0.00006   0.00006  -1.08729
   D16       -1.01164   0.00000   0.00000   0.00003   0.00003  -1.01161
   D17        1.08734   0.00000   0.00000  -0.00006  -0.00006   1.08729
   D18       -3.11062   0.00001   0.00000   0.00012   0.00012  -3.11050
         Item               Value     Threshold  Converged?
 Maximum Force            0.000034     0.000015     NO 
 RMS     Force            0.000013     0.000010     NO 
 Maximum Displacement     0.000639     0.000060     NO 
 RMS     Displacement     0.000198     0.000040     NO 
 Predicted change in Energy=-2.196357D-08
 Lowest energy point so far.  Saving SCF results.
 GradGradGradGradGradGradGradGradGradGradGradGradGradGradGradGradGradGrad

 Leave Link  103 at Wed Mar 30 17:48:44 2016, MaxMem=  2147483648 cpu:         0.2
 (Enter /vol-th/home/you/softwares/gaussian/g09D01/g09/l202.exe)
                          Input orientation:                          
 ---------------------------------------------------------------------
 Center     Atomic      Atomic             Coordinates (Angstroms)
 Number     Number       Type             X           Y           Z
 ---------------------------------------------------------------------
      1          6           0        0.000000    1.274322   -0.260274
      2          1           0       -0.884516    1.315832   -0.907835
      3          1           0        0.884516    1.315832   -0.907835
      4          1           0        0.000000    2.174890    0.364193
      5          6           0        0.000000    0.000000    0.588249
      6          1           0        0.877831    0.000000    1.248256
      7          1           0       -0.877831    0.000000    1.248256
      8          6           0        0.000000   -1.274322   -0.260274
      9          1           0        0.000000   -2.174890    0.364193
     10          1           0       -0.884516   -1.315832   -0.907835
     11          1           0        0.884516   -1.315832   -0.907835
 ---------------------------------------------------------------------
                    Distance matrix (angstroms):
                    1          2          3          4          5
     1  C    0.000000
     2  H    1.097008   0.000000
     3  H    1.097008   1.769033   0.000000
     4  H    1.095893   1.771555   1.771555   0.000000
     5  C    1.530976   2.179920   2.179920   2.186401   0.000000
     6  H    2.161052   3.079936   2.525903   2.506452   1.098269
     7  H    2.161052   2.525903   3.079936   2.506452   1.098269
     8  C    2.548644   2.812579   2.812579   3.505285   1.530976
     9  H    3.505285   3.819105   3.819105   4.349780   2.186401
    10  H    2.812579   2.631664   3.170983   3.819105   2.179920
    11  H    2.812579   3.170983   2.631664   3.819105   2.179920
                    6          7          8          9         10
     6  H    0.000000
     7  H    1.755661   0.000000
     8  C    2.161052   2.161052   0.000000
     9  H    2.506452   2.506452   1.095893   0.000000
    10  H    3.079936   2.525903   1.097008   1.771555   0.000000
    11  H    2.525903   3.079936   1.097008   1.771555   1.769033
                   11
    11  H    0.000000
 Stoichiometry    C3H8
 Framework group  C2V[C2(C),SGV(C2H2),SGV'(H2),X(H4)]
 Deg. of freedom     9
 Full point group                 C2V     NOp   4
 RotChk:  IX=0 Diff= 7.33D-16
 Largest Abelian subgroup         C2V     NOp   4
 Largest concise Abelian subgroup C2V     NOp   4
                         Standard orientation:                         
 ---------------------------------------------------------------------
 Center     Atomic      Atomic             Coordinates (Angstroms)
 Number     Number       Type             X           Y           Z
 ---------------------------------------------------------------------
      1          6           0        0.000000    1.274322   -0.260265
      2          1           0       -0.884516    1.315832   -0.907826
      3          1           0        0.884516    1.315832   -0.907826
      4          1           0        0.000000    2.174890    0.364202
      5          6           0        0.000000    0.000000    0.588258
      6          1           0        0.877831    0.000000    1.248265
      7          1           0       -0.877831    0.000000    1.248265
      8          6           0        0.000000   -1.274322   -0.260265
      9          1           0        0.000000   -2.174890    0.364202
     10          1           0       -0.884516   -1.315832   -0.907826
     11          1           0        0.884516   -1.315832   -0.907826
 ---------------------------------------------------------------------
 Rotational constants (GHZ):     29.3615710      8.3957138      7.4328370
 Leave Link  202 at Wed Mar 30 17:48:44 2016, MaxMem=  2147483648 cpu:         0.0
 (Enter /vol-th/home/you/softwares/gaussian/g09D01/g09/l301.exe)
 Standard basis: 6-31G(d) (6D, 7F)
 Ernie: Thresh=  0.10000D-02 Tol=  0.10000D-05 Strict=F.
 There are    25 symmetry adapted cartesian basis functions of A1  symmetry.
 There are     7 symmetry adapted cartesian basis functions of A2  symmetry.
 There are    11 symmetry adapted cartesian basis functions of B1  symmetry.
 There are    18 symmetry adapted cartesian basis functions of B2  symmetry.
 There are    25 symmetry adapted basis functions of A1  symmetry.
 There are     7 symmetry adapted basis functions of A2  symmetry.
 There are    11 symmetry adapted basis functions of B1  symmetry.
 There are    18 symmetry adapted basis functions of B2  symmetry.
    61 basis functions,   116 primitive gaussians,    61 cartesian basis functions
    13 alpha electrons       13 beta electrons
       nuclear repulsion energy        82.3253500471 Hartrees.
 IExCor=  402 DFT=T Ex+Corr=B3LYP ExCW=0 ScaHFX=  0.200000
 ScaDFX=  0.800000  0.720000  1.000000  0.810000 ScalE2=  1.000000  1.000000
 IRadAn=      5 IRanWt=     -1 IRanGd=            0 ICorTp=0 IEmpDi=141
 NAtoms=   11 NActive=   11 NUniq=    5 SFac= 4.00D+00 NAtFMM=   60 NAOKFM=F Big=F
 Integral buffers will be    131072 words long.
 Raffenetti 2 integral format.
 Two-electron integral symmetry is turned on.
 R6Disp:  Grimme-D3(BJ) Dispersion energy=       -0.0099045051 Hartrees.
 Nuclear repulsion after empirical dispersion term =       82.3154455421 Hartrees.
 Leave Link  301 at Wed Mar 30 17:48:44 2016, MaxMem=  2147483648 cpu:         0.6
 (Enter /vol-th/home/you/softwares/gaussian/g09D01/g09/l302.exe)
 NPDir=0 NMtPBC=     1 NCelOv=     1 NCel=       1 NClECP=     1 NCelD=      1
         NCelK=      1 NCelE2=     1 NClLst=     1 CellRange=     0.0.
 One-electron integrals computed using PRISM.
 One-electron integral symmetry used in STVInt
 NBasis=    61 RedAO= T EigKep=  8.41D-03  NBF=    25     7    11    18
 NBsUse=    61 1.00D-06 EigRej= -1.00D+00 NBFU=    25     7    11    18
 Precomputing XC quadrature grid using
 IXCGrd= 4 IRadAn=           5 IRanWt=          -1 IRanGd=           0 AccXCQ= 0.00D+00.
 Generated NRdTot=       0 NPtTot=           0 NUsed=           0 NTot=          32
 NSgBfM=    61    61    61    61    61 MxSgAt=    11 MxSgA2=    11.
 Leave Link  302 at Wed Mar 30 17:48:44 2016, MaxMem=  2147483648 cpu:         1.9
 (Enter /vol-th/home/you/softwares/gaussian/g09D01/g09/l303.exe)
 DipDrv:  MaxL=1.
 Leave Link  303 at Wed Mar 30 17:48:44 2016, MaxMem=  2147483648 cpu:         0.4
 (Enter /vol-th/home/you/softwares/gaussian/g09D01/g09/l401.exe)
 Initial guess from the checkpoint file:  "/vol-th/home/you/scratch/Gau-11630.chk"
 B after Tr=     0.000000    0.000000    0.000000
         Rot=    1.000000    0.000000    0.000000    0.000000 Ang=   0.00 deg.
 Guess basis will be translated and rotated to current coordinates.
 JPrj=2 DoOrth=T DoCkMO=T.
 Initial guess orbital symmetries:
       Occupied  (A1) (B2) (A1) (A1) (B2) (A1) (B1) (A1) (B2) (A2)
                 (B2) (A1) (B1)
       Virtual   (A1) (A1) (A1) (A1) (A1) (A1) (A1) (A1) (A1) (A1)
                 (A1) (A1) (A1) (A1) (A1) (A1) (A1) (A1) (A1) (A2)
                 (A2) (A2) (A2) (A2) (A2) (B1) (B1) (B1) (B1) (B1)
                 (B1) (B1) (B1) (B1) (B2) (B2) (B2) (B2) (B2) (B2)
                 (B2) (B2) (B2) (B2) (B2) (B2) (B2) (B2)
 The electronic state of the initial guess is 1-A1.
 Leave Link  401 at Wed Mar 30 17:48:44 2016, MaxMem=  2147483648 cpu:         1.1
 (Enter /vol-th/home/you/softwares/gaussian/g09D01/g09/l502.exe)
 Closed shell SCF:
 Using DIIS extrapolation, IDIIS=  1040.
 Integral symmetry usage will be decided dynamically.
 Keep R1 ints in memory in symmetry-blocked form, NReq=2709398.
 IVT=       31201 IEndB=       31201 NGot=  2147483648 MDV=  2146983506
 LenX=  2146983506 LenY=  2146979344
 Requested convergence on RMS density matrix=1.00D-08 within 128 cycles.
 Requested convergence on MAX density matrix=1.00D-06.
 Requested convergence on             energy=1.00D-06.
 No special actions if energy rises.
 FoFCou: FMM=F IPFlag=           0 FMFlag=           0 FMFlg1=           0
         NFxFlg=           0 DoJE=F BraDBF=F KetDBF=F FulRan=T
         wScrn=  0.000000 ICntrl=     600 IOpCl=  0 I1Cent=           0 NGrid=           0
         NMat0=    1 NMatS0=   1891 NMatT0=    0 NMatD0=    1 NMtDS0=    0 NMtDT0=    0
 Petite list used in FoFCou.

 Cycle   1  Pass 1  IDiag  1:
 E= -119.154141078215    
 DIIS: error= 1.18D-05 at cycle   1 NSaved=   1.
 NSaved= 1 IEnMin= 1 EnMin= -119.154141078215     IErMin= 1 ErrMin= 1.18D-05
 ErrMax= 1.18D-05  0.00D+00 EMaxC= 1.00D-01 BMatC= 8.83D-09 BMatP= 8.83D-09
 IDIUse=1 WtCom= 1.00D+00 WtEn= 0.00D+00
 Coeff-Com:  0.100D+01
 Coeff:      0.100D+01
 Gap=     0.913 Goal=   None    Shift=    0.000
 RMSDP=2.07D-06 MaxDP=1.85D-05              OVMax= 4.22D-05

 Cycle   2  Pass 1  IDiag  1:
 E= -119.154141091825     Delta-E=       -0.000000013610 Rises=F Damp=F
 DIIS: error= 2.70D-06 at cycle   2 NSaved=   2.
 NSaved= 2 IEnMin= 2 EnMin= -119.154141091825     IErMin= 2 ErrMin= 2.70D-06
 ErrMax= 2.70D-06  0.00D+00 EMaxC= 1.00D-01 BMatC= 7.46D-10 BMatP= 8.83D-09
 IDIUse=1 WtCom= 1.00D+00 WtEn= 0.00D+00
 Coeff-Com:  0.118D+00 0.882D+00
 Coeff:      0.118D+00 0.882D+00
 Gap=     0.421 Goal=   None    Shift=    0.000
 RMSDP=7.92D-07 MaxDP=7.44D-06 DE=-1.36D-08 OVMax= 1.50D-05

 Cycle   3  Pass 1  IDiag  1:
 E= -119.154141092133     Delta-E=       -0.000000000308 Rises=F Damp=F
 DIIS: error= 2.44D-06 at cycle   3 NSaved=   3.
 NSaved= 3 IEnMin= 3 EnMin= -119.154141092133     IErMin= 3 ErrMin= 2.44D-06
 ErrMax= 2.44D-06  0.00D+00 EMaxC= 1.00D-01 BMatC= 5.05D-10 BMatP= 7.46D-10
 IDIUse=1 WtCom= 1.00D+00 WtEn= 0.00D+00
 Coeff-Com: -0.180D-01 0.447D+00 0.571D+00
 Coeff:     -0.180D-01 0.447D+00 0.571D+00
 Gap=     0.421 Goal=   None    Shift=    0.000
 RMSDP=3.72D-07 MaxDP=4.33D-06 DE=-3.08D-10 OVMax= 5.20D-06

 Cycle   4  Pass 1  IDiag  1:
 E= -119.154141092645     Delta-E=       -0.000000000512 Rises=F Damp=F
 DIIS: error= 4.01D-07 at cycle   4 NSaved=   4.
 NSaved= 4 IEnMin= 4 EnMin= -119.154141092645     IErMin= 4 ErrMin= 4.01D-07
 ErrMax= 4.01D-07  0.00D+00 EMaxC= 1.00D-01 BMatC= 9.78D-12 BMatP= 5.05D-10
 IDIUse=1 WtCom= 1.00D+00 WtEn= 0.00D+00
 Coeff-Com: -0.129D-01 0.115D+00 0.205D+00 0.694D+00
 Coeff:     -0.129D-01 0.115D+00 0.205D+00 0.694D+00
 Gap=     0.421 Goal=   None    Shift=    0.000
 RMSDP=6.05D-08 MaxDP=6.26D-07 DE=-5.12D-10 OVMax= 8.26D-07

 Cycle   5  Pass 1  IDiag  1:
 E= -119.154141092655     Delta-E=       -0.000000000009 Rises=F Damp=F
 DIIS: error= 5.21D-08 at cycle   5 NSaved=   5.
 NSaved= 5 IEnMin= 5 EnMin= -119.154141092655     IErMin= 5 ErrMin= 5.21D-08
 ErrMax= 5.21D-08  0.00D+00 EMaxC= 1.00D-01 BMatC= 1.39D-13 BMatP= 9.78D-12
 IDIUse=1 WtCom= 1.00D+00 WtEn= 0.00D+00
 Coeff-Com: -0.248D-02 0.153D-01 0.343D-01 0.172D+00 0.781D+00
 Coeff:     -0.248D-02 0.153D-01 0.343D-01 0.172D+00 0.781D+00
 Gap=     0.421 Goal=   None    Shift=    0.000
 RMSDP=9.86D-09 MaxDP=9.39D-08 DE=-9.49D-12 OVMax= 1.63D-07

 SCF Done:  E(RB3LYP) =  -119.154141093     A.U. after    5 cycles
            NFock=  5  Conv=0.99D-08     -V/T= 2.0107
 KE= 1.178936797822D+02 PE=-4.392381728119D+02 EE= 1.198749063950D+02
 Leave Link  502 at Wed Mar 30 17:48:44 2016, MaxMem=  2147483648 cpu:         5.6
 (Enter /vol-th/home/you/softwares/gaussian/g09D01/g09/l701.exe)
 Compute integral first derivatives.
 ... and contract with generalized density number  0.
 R6Disp: Adding Grimme-D3(BJ) dispersion energy 1st derivatives to the gradient.
 Leave Link  701 at Wed Mar 30 17:48:45 2016, MaxMem=  2147483648 cpu:         1.6
 (Enter /vol-th/home/you/softwares/gaussian/g09D01/g09/l702.exe)
 L702 exits ... SP integral derivatives will be done elsewhere.
 Leave Link  702 at Wed Mar 30 17:48:45 2016, MaxMem=  2147483648 cpu:         0.3
 (Enter /vol-th/home/you/softwares/gaussian/g09D01/g09/l703.exe)
 Compute integral first derivatives, UseDBF=F ICtDFT=           0.
 Integral derivatives from FoFJK, PRISM(SPDF).
 Calling FoFJK, ICntrl=      2127 FMM=F ISym2X=1 I1Cent= 0 IOpClX= 0 NMat=1 NMatS=1 NMatT=0.
 FoFJK:  IHMeth= 1 ICntrl=    2127 DoSepK=F KAlg= 0 I1Cent=   0 FoldK=F
 IRaf=         0 NMat=   1 IRICut=       1 DoRegI=T DoRafI=F ISym2E= 1.
 FoFCou: FMM=F IPFlag=           0 FMFlag=      100000 FMFlg1=         800
         NFxFlg=           0 DoJE=F BraDBF=F KetDBF=F FulRan=T
         wScrn=  0.000000 ICntrl=    2127 IOpCl=  0 I1Cent=           0 NGrid=           0
         NMat0=    1 NMatS0=      1 NMatT0=    0 NMatD0=    1 NMtDS0=    0 NMtDT0=    0
 Petite list used in FoFCou.
 Leave Link  703 at Wed Mar 30 17:48:45 2016, MaxMem=  2147483648 cpu:         3.3
 (Enter /vol-th/home/you/softwares/gaussian/g09D01/g09/l716.exe)
 Dipole        = 0.00000000D+00 8.88178420D-16 2.15855002D-02
 ***** Axes restored to original set *****
 -------------------------------------------------------------------
 Center     Atomic                   Forces (Hartrees/Bohr)
 Number     Number              X              Y              Z
 -------------------------------------------------------------------
      1        6           0.000000000   -0.000015142    0.000003741
      2        1          -0.000000045    0.000001532    0.000000084
      3        1           0.000000045    0.000001532    0.000000084
      4        1           0.000000000    0.000001960    0.000002938
      5        6           0.000000000    0.000000000   -0.000007825
      6        1           0.000000704    0.000000000   -0.000002934
      7        1          -0.000000704    0.000000000   -0.000002934
      8        6           0.000000000    0.000015142    0.000003741
      9        1           0.000000000   -0.000001960    0.000002938
     10        1          -0.000000045   -0.000001532    0.000000084
     11        1           0.000000045   -0.000001532    0.000000084
 -------------------------------------------------------------------
 Cartesian Forces:  Max     0.000015142 RMS     0.000004265
 Leave Link  716 at Wed Mar 30 17:48:45 2016, MaxMem=  2147483648 cpu:         0.3
 (Enter /vol-th/home/you/softwares/gaussian/g09D01/g09/l103.exe)

 GradGradGradGradGradGradGradGradGradGradGradGradGradGradGradGradGradGrad
 Berny optimization.
 Using GEDIIS/GDIIS optimizer.
 FormGI is forming the generalized inverse of G from B-inverse, IUseBI=4.
 Internal  Forces:  Max     0.000012215 RMS     0.000002998
 Search for a local minimum.
 Step number   2 out of a maximum of   56
 All quantities printed in internal units (Hartrees-Bohrs-Radians)
 RMS Force = .29983D-05 SwitMx=.10000D-02 MixMth= 2
 Mixed Optimization -- En-DIIS/RFO-DIIS
 Swapping is turned off.
 Update second derivatives using D2CorX and points    1    2
 DE= -2.19D-08 DEPred=-2.20D-08 R= 9.98D-01
 Trust test= 9.98D-01 RLast= 5.77D-04 DXMaxT set to 3.00D-01
 ITU=  0  0
     Eigenvalues ---    0.00357   0.00357   0.03504   0.04852   0.05186
     Eigenvalues ---    0.05437   0.05437   0.05519   0.08355   0.12220
     Eigenvalues ---    0.14812   0.16000   0.16000   0.16000   0.16000
     Eigenvalues ---    0.16290   0.21078   0.29339   0.32508   0.33852
     Eigenvalues ---    0.33875   0.33950   0.34018   0.34018   0.34018
     Eigenvalues ---    0.34139   0.36031
 En-DIIS/RFO-DIIS IScMMF=        0 using points:     2    1
 RFO step:  Lambda= 0.00000000D+00.
 NNeg= 0 NP= 2 Switch=  2.50D-03 Rises=F DC=  2.19D-08 SmlDif=  1.00D-05
 RMS Error=  0.6146723848D-05 NUsed= 2 EDIIS=F
 DidBck=F Rises=F RFO-DIIS coefs:    0.99794    0.00206
 Iteration  1 RMS(Cart)=  0.00002988 RMS(Int)=  0.00000000
 Iteration  2 RMS(Cart)=  0.00000000 RMS(Int)=  0.00000000
 ITry= 1 IFail=0 DXMaxC= 6.95D-05 DCOld= 1.00D+10 DXMaxT= 3.00D-01 DXLimC= 3.00D+00 Rises=F
 ClnCor:  largest displacement from symmetrization is 3.17D-12 for atom     3.
 Variable       Old X    -DE/DX   Delta X   Delta X   Delta X     New X
                                 (Linear)    (Quad)   (Total)
    R1        2.07305   0.00000   0.00000   0.00000   0.00000   2.07305
    R2        2.07305   0.00000   0.00000   0.00000   0.00000   2.07305
    R3        2.07094   0.00000   0.00000   0.00001   0.00001   2.07095
    R4        2.89313  -0.00001   0.00000  -0.00004  -0.00004   2.89309
    R5        2.07543   0.00000   0.00000   0.00000   0.00000   2.07542
    R6        2.07543   0.00000   0.00000   0.00000   0.00000   2.07542
    R7        2.89313  -0.00001   0.00000  -0.00004  -0.00004   2.89309
    R8        2.07094   0.00000   0.00000   0.00001   0.00001   2.07095
    R9        2.07305   0.00000   0.00000   0.00000   0.00000   2.07305
   R10        2.07305   0.00000   0.00000   0.00000   0.00000   2.07305
    A1        1.87574   0.00000   0.00000   0.00000   0.00000   1.87574
    A2        1.88102   0.00000   0.00000  -0.00001  -0.00001   1.88101
    A3        1.93763   0.00000   0.00000   0.00002   0.00002   1.93765
    A4        1.88102   0.00000   0.00000  -0.00001  -0.00001   1.88101
    A5        1.93763   0.00000   0.00000   0.00002   0.00002   1.93765
    A6        1.94785   0.00000   0.00000  -0.00002  -0.00002   1.94783
    A7        1.91035   0.00000   0.00000  -0.00001  -0.00001   1.91034
    A8        1.91035   0.00000   0.00000  -0.00001  -0.00001   1.91034
    A9        1.96670   0.00001   0.00000   0.00003   0.00003   1.96673
   A10        1.85221   0.00000   0.00000   0.00002   0.00002   1.85223
   A11        1.91035   0.00000   0.00000  -0.00001  -0.00001   1.91034
   A12        1.91035   0.00000   0.00000  -0.00001  -0.00001   1.91034
   A13        1.94785   0.00000   0.00000  -0.00002  -0.00002   1.94783
   A14        1.93763   0.00000   0.00000   0.00002   0.00002   1.93765
   A15        1.93763   0.00000   0.00000   0.00002   0.00002   1.93765
   A16        1.88102   0.00000   0.00000  -0.00001  -0.00001   1.88101
   A17        1.88102   0.00000   0.00000  -0.00001  -0.00001   1.88101
   A18        1.87574   0.00000   0.00000   0.00000   0.00000   1.87574
    D1       -3.11050   0.00000   0.00000   0.00001   0.00001  -3.11049
    D2       -1.08729   0.00000   0.00000   0.00002   0.00002  -1.08726
    D3        1.04270   0.00000   0.00000   0.00002   0.00002   1.04271
    D4        1.08729   0.00000   0.00000  -0.00002  -0.00002   1.08726
    D5        3.11050   0.00000   0.00000  -0.00001  -0.00001   3.11049
    D6       -1.04270   0.00000   0.00000  -0.00002  -0.00002  -1.04271
    D7       -1.01161   0.00000   0.00000  -0.00001  -0.00001  -1.01162
    D8        1.01161   0.00000   0.00000   0.00001   0.00001   1.01162
    D9        3.14159   0.00000   0.00000   0.00000   0.00000   3.14159
   D10        3.14159   0.00000   0.00000   0.00000   0.00000   3.14159
   D11       -1.04270   0.00000   0.00000  -0.00002  -0.00002  -1.04271
   D12        1.04270   0.00000   0.00000   0.00002   0.00002   1.04271
   D13        1.01161   0.00000   0.00000   0.00001   0.00001   1.01162
   D14        3.11050   0.00000   0.00000  -0.00001  -0.00001   3.11049
   D15       -1.08729   0.00000   0.00000   0.00002   0.00002  -1.08726
   D16       -1.01161   0.00000   0.00000  -0.00001  -0.00001  -1.01162
   D17        1.08729   0.00000   0.00000  -0.00002  -0.00002   1.08726
   D18       -3.11050   0.00000   0.00000   0.00001   0.00001  -3.11049
         Item               Value     Threshold  Converged?
 Maximum Force            0.000012     0.000015     YES
 RMS     Force            0.000003     0.000010     YES
 Maximum Displacement     0.000070     0.000060     NO 
 RMS     Displacement     0.000030     0.000040     YES
 Predicted change in Energy=-8.689961D-10
 Lowest energy point so far.  Saving SCF results.
 GradGradGradGradGradGradGradGradGradGradGradGradGradGradGradGradGradGrad

 Leave Link  103 at Wed Mar 30 17:48:45 2016, MaxMem=  2147483648 cpu:         0.2
 (Enter /vol-th/home/you/softwares/gaussian/g09D01/g09/l202.exe)
                          Input orientation:                          
 ---------------------------------------------------------------------
 Center     Atomic      Atomic             Coordinates (Angstroms)
 Number     Number       Type             X           Y           Z
 ---------------------------------------------------------------------
      1          6           0        0.000000    1.274316   -0.260273
      2          1           0       -0.884519    1.315864   -0.907830
      3          1           0        0.884519    1.315864   -0.907830
      4          1           0        0.000000    2.174866    0.364230
      5          6           0        0.000000    0.000000    0.588224
      6          1           0        0.877837    0.000000    1.248219
      7          1           0       -0.877837    0.000000    1.248219
      8          6           0        0.000000   -1.274316   -0.260273
      9          1           0        0.000000   -2.174866    0.364230
     10          1           0       -0.884519   -1.315864   -0.907830
     11          1           0        0.884519   -1.315864   -0.907830
 ---------------------------------------------------------------------
                    Distance matrix (angstroms):
                    1          2          3          4          5
     1  C    0.000000
     2  H    1.097009   0.000000
     3  H    1.097009   1.769038   0.000000
     4  H    1.095898   1.771551   1.771551   0.000000
     5  C    1.530957   2.179919   2.179919   2.186370   0.000000
     6  H    2.161024   3.079925   2.525883   2.506407   1.098267
     7  H    2.161024   2.525883   3.079925   2.506407   1.098267
     8  C    2.548633   2.812603   2.812603   3.505262   1.530957
     9  H    3.505262   3.819123   3.819123   4.349732   2.186370
    10  H    2.812603   2.631727   3.171038   3.819123   2.179919
    11  H    2.812603   3.171038   2.631727   3.819123   2.179919
                    6          7          8          9         10
     6  H    0.000000
     7  H    1.755674   0.000000
     8  C    2.161024   2.161024   0.000000
     9  H    2.506407   2.506407   1.095898   0.000000
    10  H    3.079925   2.525883   1.097009   1.771551   0.000000
    11  H    2.525883   3.079925   1.097009   1.771551   1.769038
                   11
    11  H    0.000000
 Stoichiometry    C3H8
 Framework group  C2V[C2(C),SGV(C2H2),SGV'(H2),X(H4)]
 Deg. of freedom     9
 Full point group                 C2V     NOp   4
 RotChk:  IX=0 Diff= 7.11D-16
 Largest Abelian subgroup         C2V     NOp   4
 Largest concise Abelian subgroup C2V     NOp   4
                         Standard orientation:                         
 ---------------------------------------------------------------------
 Center     Atomic      Atomic             Coordinates (Angstroms)
 Number     Number       Type             X           Y           Z
 ---------------------------------------------------------------------
      1          6           0        0.000000    1.274316   -0.260259
      2          1           0       -0.884519    1.315864   -0.907816
      3          1           0        0.884519    1.315864   -0.907816
      4          1           0        0.000000    2.174866    0.364243
      5          6           0        0.000000    0.000000    0.588237
      6          1           0        0.877837    0.000000    1.248232
      7          1           0       -0.877837    0.000000    1.248232
      8          6           0        0.000000   -1.274316   -0.260259
      9          1           0        0.000000   -2.174866    0.364243
     10          1           0       -0.884519   -1.315864   -0.907816
     11          1           0        0.884519   -1.315864   -0.907816
 ---------------------------------------------------------------------
 Rotational constants (GHZ):     29.3624347      8.3957378      7.4329200
 Leave Link  202 at Wed Mar 30 17:48:45 2016, MaxMem=  2147483648 cpu:         0.0
 (Enter /vol-th/home/you/softwares/gaussian/g09D01/g09/l301.exe)
 Standard basis: 6-31G(d) (6D, 7F)
 Ernie: Thresh=  0.10000D-02 Tol=  0.10000D-05 Strict=F.
 There are    25 symmetry adapted cartesian basis functions of A1  symmetry.
 There are     7 symmetry adapted cartesian basis functions of A2  symmetry.
 There are    11 symmetry adapted cartesian basis functions of B1  symmetry.
 There are    18 symmetry adapted cartesian basis functions of B2  symmetry.
 There are    25 symmetry adapted basis functions of A1  symmetry.
 There are     7 symmetry adapted basis functions of A2  symmetry.
 There are    11 symmetry adapted basis functions of B1  symmetry.
 There are    18 symmetry adapted basis functions of B2  symmetry.
    61 basis functions,   116 primitive gaussians,    61 cartesian basis functions
    13 alpha electrons       13 beta electrons
       nuclear repulsion energy        82.3257699550 Hartrees.
 IExCor=  402 DFT=T Ex+Corr=B3LYP ExCW=0 ScaHFX=  0.200000
 ScaDFX=  0.800000  0.720000  1.000000  0.810000 ScalE2=  1.000000  1.000000
 IRadAn=      5 IRanWt=     -1 IRanGd=            0 ICorTp=0 IEmpDi=141
 NAtoms=   11 NActive=   11 NUniq=    5 SFac= 4.00D+00 NAtFMM=   60 NAOKFM=F Big=F
 Integral buffers will be    131072 words long.
 Raffenetti 2 integral format.
 Two-electron integral symmetry is turned on.
 R6Disp:  Grimme-D3(BJ) Dispersion energy=       -0.0099045072 Hartrees.
 Nuclear repulsion after empirical dispersion term =       82.3158654478 Hartrees.
 Leave Link  301 at Wed Mar 30 17:48:45 2016, MaxMem=  2147483648 cpu:         0.6
 (Enter /vol-th/home/you/softwares/gaussian/g09D01/g09/l302.exe)
 NPDir=0 NMtPBC=     1 NCelOv=     1 NCel=       1 NClECP=     1 NCelD=      1
         NCelK=      1 NCelE2=     1 NClLst=     1 CellRange=     0.0.
 One-electron integrals computed using PRISM.
 One-electron integral symmetry used in STVInt
 NBasis=    61 RedAO= T EigKep=  8.41D-03  NBF=    25     7    11    18
 NBsUse=    61 1.00D-06 EigRej= -1.00D+00 NBFU=    25     7    11    18
 Precomputing XC quadrature grid using
 IXCGrd= 4 IRadAn=           5 IRanWt=          -1 IRanGd=           0 AccXCQ= 0.00D+00.
 Generated NRdTot=       0 NPtTot=           0 NUsed=           0 NTot=          32
 NSgBfM=    61    61    61    61    61 MxSgAt=    11 MxSgA2=    11.
 Leave Link  302 at Wed Mar 30 17:48:45 2016, MaxMem=  2147483648 cpu:         1.9
 (Enter /vol-th/home/you/softwares/gaussian/g09D01/g09/l303.exe)
 DipDrv:  MaxL=1.
 Leave Link  303 at Wed Mar 30 17:48:45 2016, MaxMem=  2147483648 cpu:         0.4
 (Enter /vol-th/home/you/softwares/gaussian/g09D01/g09/l401.exe)
 Initial guess from the checkpoint file:  "/vol-th/home/you/scratch/Gau-11630.chk"
 B after Tr=     0.000000    0.000000    0.000000
         Rot=    1.000000    0.000000    0.000000    0.000000 Ang=   0.00 deg.
 Guess basis will be translated and rotated to current coordinates.
 JPrj=2 DoOrth=T DoCkMO=T.
 Initial guess orbital symmetries:
       Occupied  (A1) (B2) (A1) (A1) (B2) (A1) (B1) (A1) (B2) (A2)
                 (B2) (A1) (B1)
       Virtual   (A1) (A1) (A1) (A1) (A1) (A1) (A1) (A1) (A1) (A1)
                 (A1) (A1) (A1) (A1) (A1) (A1) (A1) (A1) (A1) (A2)
                 (A2) (A2) (A2) (A2) (A2) (B1) (B1) (B1) (B1) (B1)
                 (B1) (B1) (B1) (B1) (B2) (B2) (B2) (B2) (B2) (B2)
                 (B2) (B2) (B2) (B2) (B2) (B2) (B2) (B2)
 The electronic state of the initial guess is 1-A1.
 Leave Link  401 at Wed Mar 30 17:48:46 2016, MaxMem=  2147483648 cpu:         1.1
 (Enter /vol-th/home/you/softwares/gaussian/g09D01/g09/l502.exe)
 Closed shell SCF:
 Using DIIS extrapolation, IDIIS=  1040.
 Integral symmetry usage will be decided dynamically.
 Keep R1 ints in memory in symmetry-blocked form, NReq=2709398.
 IVT=       31201 IEndB=       31201 NGot=  2147483648 MDV=  2146983506
 LenX=  2146983506 LenY=  2146979344
 Requested convergence on RMS density matrix=1.00D-08 within 128 cycles.
 Requested convergence on MAX density matrix=1.00D-06.
 Requested convergence on             energy=1.00D-06.
 No special actions if energy rises.
 FoFCou: FMM=F IPFlag=           0 FMFlag=           0 FMFlg1=           0
         NFxFlg=           0 DoJE=F BraDBF=F KetDBF=F FulRan=T
         wScrn=  0.000000 ICntrl=     600 IOpCl=  0 I1Cent=           0 NGrid=           0
         NMat0=    1 NMatS0=   1891 NMatT0=    0 NMatD0=    1 NMtDS0=    0 NMtDT0=    0
 Petite list used in FoFCou.

 Cycle   1  Pass 1  IDiag  1:
 E= -119.154141092910    
 DIIS: error= 2.47D-06 at cycle   1 NSaved=   1.
 NSaved= 1 IEnMin= 1 EnMin= -119.154141092910     IErMin= 1 ErrMin= 2.47D-06
 ErrMax= 2.47D-06  0.00D+00 EMaxC= 1.00D-01 BMatC= 3.84D-10 BMatP= 3.84D-10
 IDIUse=1 WtCom= 1.00D+00 WtEn= 0.00D+00
 Coeff-Com:  0.100D+01
 Coeff:      0.100D+01
 Gap=     0.913 Goal=   None    Shift=    0.000
 RMSDP=4.52D-07 MaxDP=3.85D-06              OVMax= 9.38D-06

 Cycle   2  Pass 1  IDiag  1:
 E= -119.154141093620     Delta-E=       -0.000000000711 Rises=F Damp=F
 DIIS: error= 6.54D-07 at cycle   2 NSaved=   2.
 NSaved= 2 IEnMin= 2 EnMin= -119.154141093620     IErMin= 2 ErrMin= 6.54D-07
 ErrMax= 6.54D-07  0.00D+00 EMaxC= 1.00D-01 BMatC= 1.62D-11 BMatP= 3.84D-10
 IDIUse=1 WtCom= 1.00D+00 WtEn= 0.00D+00
 Coeff-Com:  0.151D-01 0.985D+00
 Coeff:      0.151D-01 0.985D+00
 Gap=     0.421 Goal=   None    Shift=    0.000
 RMSDP=1.15D-07 MaxDP=1.82D-06 DE=-7.11D-10 OVMax= 2.02D-06

 Cycle   3  Pass 1  IDiag  1:
 E= -119.154141093624     Delta-E=       -0.000000000004 Rises=F Damp=F
 DIIS: error= 6.47D-07 at cycle   3 NSaved=   3.
 NSaved= 3 IEnMin= 3 EnMin= -119.154141093624     IErMin= 3 ErrMin= 6.47D-07
 ErrMax= 6.47D-07  0.00D+00 EMaxC= 1.00D-01 BMatC= 1.62D-11 BMatP= 1.62D-11
 IDIUse=1 WtCom= 1.00D+00 WtEn= 0.00D+00
 Coeff-Com: -0.347D-01 0.514D+00 0.520D+00
 Coeff:     -0.347D-01 0.514D+00 0.520D+00
 Gap=     0.421 Goal=   None    Shift=    0.000
 RMSDP=5.95D-08 MaxDP=1.04D-06 DE=-3.89D-12 OVMax= 1.04D-06

 Cycle   4  Pass 1  IDiag  1:
 E= -119.154141093640     Delta-E=       -0.000000000016 Rises=F Damp=F
 DIIS: error= 5.04D-08 at cycle   4 NSaved=   4.
 NSaved= 4 IEnMin= 4 EnMin= -119.154141093640     IErMin= 4 ErrMin= 5.04D-08
 ErrMax= 5.04D-08  0.00D+00 EMaxC= 1.00D-01 BMatC= 1.46D-13 BMatP= 1.62D-11
 IDIUse=1 WtCom= 1.00D+00 WtEn= 0.00D+00
 Coeff-Com: -0.961D-02 0.931D-01 0.145D+00 0.772D+00
 Coeff:     -0.961D-02 0.931D-01 0.145D+00 0.772D+00
 Gap=     0.421 Goal=   None    Shift=    0.000
 RMSDP=7.64D-09 MaxDP=9.05D-08 DE=-1.57D-11 OVMax= 1.27D-07

 SCF Done:  E(RB3LYP) =  -119.154141094     A.U. after    4 cycles
            NFock=  4  Conv=0.76D-08     -V/T= 2.0107
 KE= 1.178937294748D+02 PE=-4.392390471789D+02 EE= 1.198753111626D+02
 Leave Link  502 at Wed Mar 30 17:48:46 2016, MaxMem=  2147483648 cpu:         4.4
 (Enter /vol-th/home/you/softwares/gaussian/g09D01/g09/l701.exe)
 Compute integral first derivatives.
 ... and contract with generalized density number  0.
 R6Disp: Adding Grimme-D3(BJ) dispersion energy 1st derivatives to the gradient.
 Leave Link  701 at Wed Mar 30 17:48:46 2016, MaxMem=  2147483648 cpu:         1.6
 (Enter /vol-th/home/you/softwares/gaussian/g09D01/g09/l702.exe)
 L702 exits ... SP integral derivatives will be done elsewhere.
 Leave Link  702 at Wed Mar 30 17:48:46 2016, MaxMem=  2147483648 cpu:         0.3
 (Enter /vol-th/home/you/softwares/gaussian/g09D01/g09/l703.exe)
 Compute integral first derivatives, UseDBF=F ICtDFT=           0.
 Integral derivatives from FoFJK, PRISM(SPDF).
 Calling FoFJK, ICntrl=      2127 FMM=F ISym2X=1 I1Cent= 0 IOpClX= 0 NMat=1 NMatS=1 NMatT=0.
 FoFJK:  IHMeth= 1 ICntrl=    2127 DoSepK=F KAlg= 0 I1Cent=   0 FoldK=F
 IRaf=         0 NMat=   1 IRICut=       1 DoRegI=T DoRafI=F ISym2E= 1.
 FoFCou: FMM=F IPFlag=           0 FMFlag=      100000 FMFlg1=         800
         NFxFlg=           0 DoJE=F BraDBF=F KetDBF=F FulRan=T
         wScrn=  0.000000 ICntrl=    2127 IOpCl=  0 I1Cent=           0 NGrid=           0
         NMat0=    1 NMatS0=      1 NMatT0=    0 NMatD0=    1 NMtDS0=    0 NMtDT0=    0
 Petite list used in FoFCou.
 Leave Link  703 at Wed Mar 30 17:48:46 2016, MaxMem=  2147483648 cpu:         3.3
 (Enter /vol-th/home/you/softwares/gaussian/g09D01/g09/l716.exe)
 Dipole        = 2.22044605D-16 1.77635684D-15 2.15914074D-02
 ***** Axes restored to original set *****
 -------------------------------------------------------------------
 Center     Atomic                   Forces (Hartrees/Bohr)
 Number     Number              X              Y              Z
 -------------------------------------------------------------------
      1        6           0.000000000   -0.000001965    0.000000911
      2        1           0.000000597    0.000000078    0.000000055
      3        1          -0.000000597    0.000000078    0.000000055
      4        1           0.000000000    0.000000864    0.000000656
      5        6           0.000000000    0.000000000   -0.000003261
      6        1          -0.000000071    0.000000000   -0.000000046
      7        1           0.000000071    0.000000000   -0.000000046
      8        6           0.000000000    0.000001965    0.000000911
      9        1           0.000000000   -0.000000864    0.000000656
     10        1           0.000000597   -0.000000078    0.000000055
     11        1          -0.000000597   -0.000000078    0.000000055
 -------------------------------------------------------------------
 Cartesian Forces:  Max     0.000003261 RMS     0.000000850
 Leave Link  716 at Wed Mar 30 17:48:46 2016, MaxMem=  2147483648 cpu:         0.3
 (Enter /vol-th/home/you/softwares/gaussian/g09D01/g09/l103.exe)

 GradGradGradGradGradGradGradGradGradGradGradGradGradGradGradGradGradGrad
 Berny optimization.
 Using GEDIIS/GDIIS optimizer.
 FormGI is forming the generalized inverse of G from B-inverse, IUseBI=4.
 Internal  Forces:  Max     0.000001932 RMS     0.000000578
 Search for a local minimum.
 Step number   3 out of a maximum of   56
 All quantities printed in internal units (Hartrees-Bohrs-Radians)
 RMS Force = .57833D-06 SwitMx=.10000D-02 MixMth= 2
 Mixed Optimization -- En-DIIS/RFO-DIIS
 Swapping is turned off.
 Update second derivatives using D2CorX and points    1    2    3
 DE= -9.85D-10 DEPred=-8.69D-10 R= 1.13D+00
 Trust test= 1.13D+00 RLast= 1.11D-04 DXMaxT set to 3.00D-01
 ITU=  0  0  0
     Eigenvalues ---    0.00357   0.00357   0.03504   0.04901   0.05437
     Eigenvalues ---    0.05437   0.05447   0.05519   0.08355   0.12221
     Eigenvalues ---    0.13733   0.16000   0.16000   0.16000   0.16000
     Eigenvalues ---    0.16319   0.19802   0.29339   0.31925   0.33865
     Eigenvalues ---    0.33875   0.34018   0.34018   0.34018   0.34028
     Eigenvalues ---    0.34139   0.34411
 En-DIIS/RFO-DIIS IScMMF=        0 using points:     3    2    1
 RFO step:  Lambda= 0.00000000D+00.
 NNeg= 0 NP= 3 Switch=  2.50D-03 Rises=F DC=  2.19D-08 SmlDif=  1.00D-05
 RMS Error=  0.1296878928D-05 NUsed= 3 EDIIS=F
 DidBck=F Rises=F RFO-DIIS coefs:    1.15296   -0.15195   -0.00100
 Iteration  1 RMS(Cart)=  0.00000778 RMS(Int)=  0.00000000
 Iteration  2 RMS(Cart)=  0.00000000 RMS(Int)=  0.00000000
 ITry= 1 IFail=0 DXMaxC= 1.81D-05 DCOld= 1.00D+10 DXMaxT= 3.00D-01 DXLimC= 3.00D+00 Rises=F
 ClnCor:  largest displacement from symmetrization is 8.19D-13 for atom     9.
 Variable       Old X    -DE/DX   Delta X   Delta X   Delta X     New X
                                 (Linear)    (Quad)   (Total)
    R1        2.07305   0.00000   0.00000   0.00000   0.00000   2.07305
    R2        2.07305   0.00000   0.00000   0.00000   0.00000   2.07305
    R3        2.07095   0.00000   0.00000   0.00000   0.00000   2.07095
    R4        2.89309   0.00000  -0.00001   0.00000  -0.00001   2.89308
    R5        2.07542   0.00000   0.00000   0.00000   0.00000   2.07542
    R6        2.07542   0.00000   0.00000   0.00000   0.00000   2.07542
    R7        2.89309   0.00000  -0.00001   0.00000  -0.00001   2.89308
    R8        2.07095   0.00000   0.00000   0.00000   0.00000   2.07095
    R9        2.07305   0.00000   0.00000   0.00000   0.00000   2.07305
   R10        2.07305   0.00000   0.00000   0.00000   0.00000   2.07305
    A1        1.87574   0.00000   0.00000   0.00000   0.00000   1.87574
    A2        1.88101   0.00000   0.00000   0.00000   0.00000   1.88101
    A3        1.93765   0.00000   0.00000   0.00000   0.00000   1.93765
    A4        1.88101   0.00000   0.00000   0.00000   0.00000   1.88101
    A5        1.93765   0.00000   0.00000   0.00000   0.00000   1.93765
    A6        1.94783   0.00000   0.00000   0.00000   0.00000   1.94783
    A7        1.91034   0.00000   0.00000   0.00000   0.00000   1.91034
    A8        1.91034   0.00000   0.00000   0.00000   0.00000   1.91034
    A9        1.96673   0.00000   0.00000   0.00001   0.00001   1.96674
   A10        1.85223   0.00000   0.00000  -0.00001   0.00000   1.85223
   A11        1.91034   0.00000   0.00000   0.00000   0.00000   1.91034
   A12        1.91034   0.00000   0.00000   0.00000   0.00000   1.91034
   A13        1.94783   0.00000   0.00000   0.00000   0.00000   1.94783
   A14        1.93765   0.00000   0.00000   0.00000   0.00000   1.93765
   A15        1.93765   0.00000   0.00000   0.00000   0.00000   1.93765
   A16        1.88101   0.00000   0.00000   0.00000   0.00000   1.88101
   A17        1.88101   0.00000   0.00000   0.00000   0.00000   1.88101
   A18        1.87574   0.00000   0.00000   0.00000   0.00000   1.87574
    D1       -3.11049   0.00000   0.00000   0.00000   0.00000  -3.11049
    D2       -1.08726   0.00000   0.00000  -0.00001   0.00000  -1.08726
    D3        1.04271   0.00000   0.00000   0.00000   0.00000   1.04271
    D4        1.08726   0.00000   0.00000   0.00001   0.00000   1.08726
    D5        3.11049   0.00000   0.00000   0.00000   0.00000   3.11049
    D6       -1.04271   0.00000   0.00000   0.00000   0.00000  -1.04271
    D7       -1.01162   0.00000   0.00000   0.00000   0.00000  -1.01161
    D8        1.01162   0.00000   0.00000   0.00000   0.00000   1.01161
    D9        3.14159   0.00000   0.00000   0.00000   0.00000   3.14159
   D10        3.14159   0.00000   0.00000   0.00000   0.00000   3.14159
   D11       -1.04271   0.00000   0.00000   0.00000   0.00000  -1.04271
   D12        1.04271   0.00000   0.00000   0.00000   0.00000   1.04271
   D13        1.01162   0.00000   0.00000   0.00000   0.00000   1.01161
   D14        3.11049   0.00000   0.00000   0.00000   0.00000   3.11049
   D15       -1.08726   0.00000   0.00000  -0.00001   0.00000  -1.08726
   D16       -1.01162   0.00000   0.00000   0.00000   0.00000  -1.01161
   D17        1.08726   0.00000   0.00000   0.00001   0.00000   1.08726
[...]
     31  0.874118D-03  0.514367D-03  0.117599D-03  0.171457D-02 -0.319460D-03
     32 -0.382754D-03  0.115338D-02  0.776757D-03 -0.699464D-04 -0.488453D-02
     33 -0.181722D-03  0.694262D-03  0.181820D-03 -0.609716D-03 -0.381635D-02
               21            22            23            24            25 
     21  0.150313D+00
     22  0.156354D-01  0.571688D+00
     23 -0.108460D-02  0.000000D+00  0.514241D+00
     24 -0.118983D-01  0.000000D+00 -0.488507D-01  0.545274D+00
     25 -0.353108D-03 -0.500718D-01  0.000000D+00  0.000000D+00  0.481086D-01
     26  0.442895D-04  0.000000D+00 -0.222952D+00  0.124387D+00  0.000000D+00
     27  0.855692D-03  0.000000D+00  0.125172D+00 -0.138379D+00  0.000000D+00
     28 -0.117599D-03 -0.221158D+00 -0.565287D-02 -0.122509D+00  0.944053D-03
     29  0.776757D-03 -0.525466D-02 -0.495837D-01 -0.275986D-02  0.233851D-01
     30  0.181821D-03 -0.122359D+00 -0.307283D-02 -0.137802D+00 -0.156803D-01
     31 -0.297370D-03 -0.221158D+00  0.565287D-02  0.122509D+00  0.944053D-03
     32 -0.355322D-02  0.525466D-02 -0.495837D-01 -0.275986D-02 -0.233851D-01
     33 -0.133159D-02  0.122359D+00 -0.307283D-02 -0.137802D+00  0.156803D-01
               26            27            28            29            30 
     26  0.243483D+00
     27 -0.135201D+00  0.147715D+00
     28  0.699117D-03  0.131284D-02  0.237640D+00
     29  0.166968D-02  0.149520D-01  0.601802D-02  0.521170D-01
     30 -0.109480D-02 -0.113135D-01  0.136170D+00  0.686488D-02  0.148132D+00
     31 -0.699117D-03 -0.131284D-02 -0.213279D-01  0.177423D-03  0.163624D-01
     32  0.166968D-02  0.149520D-01 -0.177423D-03 -0.962656D-03  0.552355D-03
     33 -0.109480D-02 -0.113135D-01 -0.163624D-01  0.552355D-03  0.132189D-01
               31            32            33 
     31  0.237640D+00
     32 -0.601802D-02  0.521170D-01
     33 -0.136170D+00  0.686488D-02  0.148132D+00
 FormGI is forming the generalized inverse of G from B-inverse, IUseBI=4.
 Leave Link  716 at Wed Mar 30 17:48:55 2016, MaxMem=  2147483648 cpu:         0.4
 (Enter /vol-th/home/you/softwares/gaussian/g09D01/g09/l103.exe)

 GradGradGradGradGradGradGradGradGradGradGradGradGradGradGradGradGradGrad
 Berny optimization.
 Red2BG is reusing G-inverse.
 Internal  Forces:  Max     0.000001932 RMS     0.000000574
 Search for a local minimum.
 Step number   1 out of a maximum of    2
 All quantities printed in internal units (Hartrees-Bohrs-Radians)
 Second derivative matrix not updated -- analytic derivatives used.
 ITU=  0
     Eigenvalues ---    0.00234   0.00280   0.03579   0.04070   0.04667
     Eigenvalues ---    0.04740   0.04792   0.04821   0.07243   0.10429
     Eigenvalues ---    0.12425   0.12840   0.13176   0.14604   0.15448
     Eigenvalues ---    0.16798   0.21860   0.29295   0.30395   0.32672
     Eigenvalues ---    0.33376   0.33521   0.33535   0.33738   0.33802
     Eigenvalues ---    0.34502   0.34679
 Angle between quadratic step and forces=  34.68 degrees.
 Linear search not attempted -- first point.
 Iteration  1 RMS(Cart)=  0.00000786 RMS(Int)=  0.00000000
 Iteration  2 RMS(Cart)=  0.00000000 RMS(Int)=  0.00000000
 ITry= 1 IFail=0 DXMaxC= 1.87D-05 DCOld= 1.00D+10 DXMaxT= 3.00D-01 DXLimC= 3.00D+00 Rises=F
 ClnCor:  largest displacement from symmetrization is 2.77D-12 for atom     3.
 Variable       Old X    -DE/DX   Delta X   Delta X   Delta X     New X
                                 (Linear)    (Quad)   (Total)
    R1        2.07305   0.00000   0.00000   0.00000   0.00000   2.07305
    R2        2.07305   0.00000   0.00000   0.00000   0.00000   2.07305
    R3        2.07095   0.00000   0.00000   0.00000   0.00000   2.07095
    R4        2.89309   0.00000   0.00000  -0.00001  -0.00001   2.89308
    R5        2.07542   0.00000   0.00000   0.00000   0.00000   2.07542
    R6        2.07542   0.00000   0.00000   0.00000   0.00000   2.07542
    R7        2.89309   0.00000   0.00000  -0.00001  -0.00001   2.89308
    R8        2.07095   0.00000   0.00000   0.00000   0.00000   2.07095
    R9        2.07305   0.00000   0.00000   0.00000   0.00000   2.07305
   R10        2.07305   0.00000   0.00000   0.00000   0.00000   2.07305
    A1        1.87574   0.00000   0.00000   0.00000   0.00000   1.87574
    A2        1.88101   0.00000   0.00000   0.00000   0.00000   1.88101
    A3        1.93765   0.00000   0.00000   0.00000   0.00000   1.93765
    A4        1.88101   0.00000   0.00000   0.00000   0.00000   1.88101
    A5        1.93765   0.00000   0.00000   0.00000   0.00000   1.93765
    A6        1.94783   0.00000   0.00000   0.00000   0.00000   1.94783
    A7        1.91034   0.00000   0.00000   0.00000   0.00000   1.91034
    A8        1.91034   0.00000   0.00000   0.00000   0.00000   1.91034
    A9        1.96673   0.00000   0.00000   0.00001   0.00001   1.96674
   A10        1.85223   0.00000   0.00000   0.00000   0.00000   1.85223
   A11        1.91034   0.00000   0.00000   0.00000   0.00000   1.91034
   A12        1.91034   0.00000   0.00000   0.00000   0.00000   1.91034
   A13        1.94783   0.00000   0.00000   0.00000   0.00000   1.94783
   A14        1.93765   0.00000   0.00000   0.00000   0.00000   1.93765
   A15        1.93765   0.00000   0.00000   0.00000   0.00000   1.93765
   A16        1.88101   0.00000   0.00000   0.00000   0.00000   1.88101
   A17        1.88101   0.00000   0.00000   0.00000   0.00000   1.88101
   A18        1.87574   0.00000   0.00000   0.00000   0.00000   1.87574
    D1       -3.11049   0.00000   0.00000   0.00000   0.00000  -3.11049
    D2       -1.08726   0.00000   0.00000   0.00000   0.00000  -1.08727
    D3        1.04271   0.00000   0.00000   0.00000   0.00000   1.04271
    D4        1.08726   0.00000   0.00000   0.00000   0.00000   1.08727
    D5        3.11049   0.00000   0.00000   0.00000   0.00000   3.11049
    D6       -1.04271   0.00000   0.00000   0.00000   0.00000  -1.04271
    D7       -1.01162   0.00000   0.00000   0.00000   0.00000  -1.01161
    D8        1.01162   0.00000   0.00000   0.00000   0.00000   1.01161
    D9        3.14159   0.00000   0.00000   0.00000   0.00000   3.14159
   D10        3.14159   0.00000   0.00000   0.00000   0.00000   3.14159
   D11       -1.04271   0.00000   0.00000   0.00000   0.00000  -1.04271
   D12        1.04271   0.00000   0.00000   0.00000   0.00000   1.04271
   D13        1.01162   0.00000   0.00000   0.00000   0.00000   1.01161
   D14        3.11049   0.00000   0.00000   0.00000   0.00000   3.11049
   D15       -1.08726   0.00000   0.00000   0.00000   0.00000  -1.08727
   D16       -1.01162   0.00000   0.00000   0.00000   0.00000  -1.01161
   D17        1.08726   0.00000   0.00000   0.00000   0.00000   1.08727
   D18       -3.11049   0.00000   0.00000   0.00000   0.00000  -3.11049
         Item               Value     Threshold  Converged?
 Maximum Force            0.000002     0.000015     YES
 RMS     Force            0.000001     0.000010     YES
 Maximum Displacement     0.000019     0.000060     YES
 RMS     Displacement     0.000008     0.000040     YES
 Predicted change in Energy=-3.897849D-11
 Optimization completed.
    -- Stationary point found.
                           ----------------------------
                           !   Optimized Parameters   !
                           ! (Angstroms and Degrees)  !
 --------------------------                            --------------------------
 ! Name  Definition              Value          Derivative Info.                !
 --------------------------------------------------------------------------------
 ! R1    R(1,2)                  1.097          -DE/DX =    0.0                 !
 ! R2    R(1,3)                  1.097          -DE/DX =    0.0                 !
 ! R3    R(1,4)                  1.0959         -DE/DX =    0.0                 !
 ! R4    R(1,5)                  1.531          -DE/DX =    0.0                 !
 ! R5    R(5,6)                  1.0983         -DE/DX =    0.0                 !
 ! R6    R(5,7)                  1.0983         -DE/DX =    0.0                 !
 ! R7    R(5,8)                  1.531          -DE/DX =    0.0                 !
 ! R8    R(8,9)                  1.0959         -DE/DX =    0.0                 !
 ! R9    R(8,10)                 1.097          -DE/DX =    0.0                 !
 ! R10   R(8,11)                 1.097          -DE/DX =    0.0                 !
 ! A1    A(2,1,3)              107.472          -DE/DX =    0.0                 !
 ! A2    A(2,1,4)              107.7737         -DE/DX =    0.0                 !
 ! A3    A(2,1,5)              111.0192         -DE/DX =    0.0                 !
 ! A4    A(3,1,4)              107.7737         -DE/DX =    0.0                 !
 ! A5    A(3,1,5)              111.0192         -DE/DX =    0.0                 !
 ! A6    A(4,1,5)              111.6025         -DE/DX =    0.0                 !
 ! A7    A(1,5,6)              109.4545         -DE/DX =    0.0                 !
 ! A8    A(1,5,7)              109.4545         -DE/DX =    0.0                 !
 ! A9    A(1,5,8)              112.6851         -DE/DX =    0.0                 !
 ! A10   A(6,5,7)              106.1252         -DE/DX =    0.0                 !
 ! A11   A(6,5,8)              109.4545         -DE/DX =    0.0                 !
 ! A12   A(7,5,8)              109.4545         -DE/DX =    0.0                 !
 ! A13   A(5,8,9)              111.6025         -DE/DX =    0.0                 !
 ! A14   A(5,8,10)             111.0192         -DE/DX =    0.0                 !
 ! A15   A(5,8,11)             111.0192         -DE/DX =    0.0                 !
 ! A16   A(9,8,10)             107.7737         -DE/DX =    0.0                 !
 ! A17   A(9,8,11)             107.7737         -DE/DX =    0.0                 !
 ! A18   A(10,8,11)            107.472          -DE/DX =    0.0                 !
 ! D1    D(2,1,5,6)           -178.2182         -DE/DX =    0.0                 !
 ! D2    D(2,1,5,7)            -62.2955         -DE/DX =    0.0                 !
 ! D3    D(2,1,5,8)             59.7431         -DE/DX =    0.0                 !
 ! D4    D(3,1,5,6)             62.2955         -DE/DX =    0.0                 !
 ! D5    D(3,1,5,7)            178.2182         -DE/DX =    0.0                 !
 ! D6    D(3,1,5,8)            -59.7431         -DE/DX =    0.0                 !
 ! D7    D(4,1,5,6)            -57.9613         -DE/DX =    0.0                 !
 ! D8    D(4,1,5,7)             57.9613         -DE/DX =    0.0                 !
 ! D9    D(4,1,5,8)            180.0            -DE/DX =    0.0                 !
 ! D10   D(1,5,8,9)            180.0            -DE/DX =    0.0                 !
 ! D11   D(1,5,8,10)           -59.7431         -DE/DX =    0.0                 !
 ! D12   D(1,5,8,11)            59.7431         -DE/DX =    0.0                 !
 ! D13   D(6,5,8,9)             57.9613         -DE/DX =    0.0                 !
 ! D14   D(6,5,8,10)           178.2182         -DE/DX =    0.0                 !
 ! D15   D(6,5,8,11)           -62.2955         -DE/DX =    0.0                 !
 ! D16   D(7,5,8,9)            -57.9613         -DE/DX =    0.0                 !
 ! D17   D(7,5,8,10)            62.2955         -DE/DX =    0.0                 !
 ! D18   D(7,5,8,11)          -178.2182         -DE/DX =    0.0                 !
 --------------------------------------------------------------------------------
 GradGradGradGradGradGradGradGradGradGradGradGradGradGradGradGradGradGrad

 Leave Link  103 at Wed Mar 30 17:48:56 2016, MaxMem=  2147483648 cpu:         0.1
 (Enter /vol-th/home/you/softwares/gaussian/g09D01/g09/l9999.exe)
 1\1\GINC-CN555\Freq\RB3LYP\6-31G(d)\C3H8\ROOT\30-Mar-2016\0\\#P Geom=A
 llCheck Guess=TCheck SCRF=Check GenChk RB3LYP/6-31G(d) Freq\\using B3L
 YP/6-31G(d) to do opt and freq calc.\\0,1\C,0.,1.27431646,-0.260272563
 8\H,-0.8845188161,1.3158636506,-0.9078295676\H,0.8845188161,1.31586365
 06,-0.9078295676\H,0.,2.1748658823,0.3642299306\C,0.,0.,0.5882239069\H
 ,0.877837123,0.,1.248218815\H,-0.877837123,0.,1.248218815\C,0.,-1.2743
 1646,-0.2602725638\H,0.,-2.1748658823,0.3642299306\H,-0.8845188161,-1.
 3158636506,-0.9078295676\H,0.8845188161,-1.3158636506,-0.9078295676\\V
 ersion=ES64L-G09RevD.01\State=1-A1\HF=-119.1541411\RMSD=2.380e-09\RMSF
 =8.414e-07\ZeroPoint=0.1041729\Thermal=0.1086773\Dipole=0.,0.,0.021591
 9\DipoleDeriv=0.1313374,0.,0.,0.,0.0309125,0.0316624,0.,-0.0053373,0.1
 023581,-0.0922531,0.0165117,-0.1134823,-0.0155613,0.0330223,0.0087954,
 -0.1015866,0.0402009,-0.039253,-0.0922531,-0.0165117,0.1134823,0.01556
 13,0.0330223,0.0087954,0.1015866,0.0402009,-0.039253,0.0637636,0.,0.,0
 .,-0.1548762,-0.0764737,0.,-0.0973166,-0.0215614,0.1678989,0.,0.,0.,0.
 1661303,0.,0.,0.,0.1353256,-0.0945442,0.,-0.130633,0.,-0.025146,0.,-0.
 1110898,0.,-0.0699536,-0.0945442,0.,0.130633,0.,-0.025146,0.,0.1110898
 ,0.,-0.0699536,0.1313374,0.,0.,0.,0.0309125,-0.0316624,0.,0.0053373,0.
 1023581,0.0637636,0.,0.,0.,-0.1548762,0.0764737,0.,0.0973166,-0.021561
 4,-0.0922531,-0.0165117,-0.1134823,0.0155613,0.0330223,-0.0087954,-0.1
 015866,-0.0402009,-0.039253,-0.0922531,0.0165117,0.1134823,-0.0155613,
 0.0330223,-0.0087954,0.1015866,-0.0402009,-0.039253\Polar=31.7552233,0
 .,36.0379544,0.,0.,32.4833487\PG=C02V [C2(C1),SGV(C2H2),SGV'(H2),X(H4)
 ]\NImag=0\\0.57168836,0.,0.51424112,0.,0.04885067,0.54527390,-0.221157
 83,0.00565287,-0.12250904,0.23763997,0.00525466,-0.04958374,0.00275986
 ,-0.00601802,0.05211697,-0.12235918,0.00307283,-0.13780168,0.13616955,
 -0.00686488,0.14813222,-0.22115783,-0.00565287,0.12250904,-0.02132790,
 -0.00017742,0.01636235,0.23763997,-0.00525466,-0.04958374,0.00275986,0
 .00017742,-0.00096266,-0.00055236,0.00601802,0.05211697,0.12235918,0.0
 0307283,-0.13780168,-0.01636235,-0.00055236,0.01321892,-0.13616955,-0.
 00686488,0.14813222,-0.05007179,0.,0.,0.00094405,-0.02338505,-0.015680
 33,0.00094405,0.02338505,0.01568033,0.04810858,0.,-0.22295202,-0.12438
 687,-0.00069912,0.00166968,0.00109480,0.00069912,0.00166968,0.00109480
 ,0.,0.24348307,0.,-0.12517220,-0.13837937,0.00131284,-0.01495196,-0.01
 131347,-0.00131284,-0.01495196,-0.01131347,0.,0.13520111,0.14771488,-0
 .08217272,0.,0.,0.00086647,0.02464653,-0.01632980,0.00086647,-0.024646
 53,0.01632980,-0.00142345,0.,0.,0.59710980,0.,-0.15773630,0.05564795,0
 .00014133,-0.00136720,0.00075838,-0.00014133,-0.00136720,0.00075838,0.
 ,-0.02120658,0.01747551,0.,0.45965086,0.,0.05355696,-0.11970732,0.0006
 3851,0.01698985,-0.01249585,-0.00063851,0.01698985,-0.01249585,0.,-0.0
 1770160,0.01315839,0.,0.,0.54080799,0.00088032,0.00018933,0.00093339,0
 .00171457,-0.00006995,0.00060972,0.00087412,0.00038275,-0.00018172,0.0
 0004863,0.00063246,-0.00001266,-0.21669167,0.,-0.11969031,0.23204185,0
 .02454755,-0.00144451,0.01807078,-0.00031946,-0.00488453,0.00381635,-0
 .00051437,0.00115338,-0.00069426,0.00017795,0.00096522,-0.00085661,0.,
 -0.04814814,0.,0.,0.05702080,-0.01563539,0.00108460,-0.01189833,0.0002
 9737,0.00355322,-0.00133159,0.00011760,-0.00077676,0.00018182,0.000353
 11,-0.00004429,0.00085569,-0.11898844,0.,-0.13886336,0.13285796,0.,0.1
 5031311,0.00088032,-0.00018933,-0.00093340,0.00087412,-0.00038275,0.00
 018172,0.00171457,0.00006995,-0.00060972,0.00004863,-0.00063246,0.0000
 1266,-0.21669167,0.,0.11969031,-0.02238545,0.,0.01586511,0.23204185,-0
 .02454755,-0.00144451,0.01807078,0.00051437,0.00115338,-0.00069426,0.0
 0031946,-0.00488453,0.00381635,-0.00017795,0.00096522,-0.00085661,0.,-
 0.04814814,0.,0.,-0.00045178,0.,0.,0.05702080,0.01563539,0.00108460,-0
 .01189833,-0.00011760,-0.00077676,0.00018182,-0.00029737,0.00355322,-0
 .00133159,-0.00035311,-0.00004429,0.00085569,0.11898844,0.,-0.13886336
 ,-0.01586511,0.,0.01293506,-0.13285796,0.,0.15031311,0.00047051,0.,0.,
 0.00013432,0.00117923,0.00048818,0.00013432,-0.00117923,-0.00048818,0.
 00037203,0.,0.,-0.08217272,0.,0.,0.00088032,-0.02454755,-0.01563539,0.
 00088032,0.02454755,0.01563539,0.57168836,0.,-0.03166502,-0.01477018,-
 0.00023005,0.00191281,-0.00119886,0.00023005,0.00191281,-0.00119886,0.
 ,-0.00365691,0.00271819,0.,-0.15773630,-0.05355696,-0.00018933,-0.0014
 4451,-0.00108460,0.00018933,-0.00144451,-0.00108460,0.,0.51424112,0.,0
 .01477018,0.01320650,0.00018728,0.00065262,0.00064766,-0.00018728,0.00
 065262,0.00064766,0.,0.00569762,-0.00228901,0.,-0.05564795,-0.11970732
 ,0.00093340,-0.01807078,-0.01189833,-0.00093339,-0.01807078,-0.0118983
 3,0.,-0.04885067,0.54527390,0.00037203,0.,0.,0.00022801,-0.00036299,0.
 00030186,0.00022801,0.00036299,-0.00030186,0.00057324,0.,0.,-0.0014234
 5,0.,0.,0.00004863,-0.00017795,0.00035311,0.00004863,0.00017795,-0.000
 35311,-0.05007179,0.,0.,0.04810858,0.,-0.00365691,-0.00569762,0.000131
 01,0.00035750,-0.00010478,-0.00013101,0.00035750,-0.00010478,0.,-0.001
 65236,0.00112085,0.,-0.02120658,0.01770160,-0.00063246,0.00096522,0.00
 004429,0.00063246,0.00096522,0.00004429,0.,-0.22295202,0.12438687,0.,0
 .24348307,0.,-0.00271819,-0.00228901,0.00026406,-0.00013684,-0.0000039
 4,-0.00026406,-0.00013684,-0.00000394,0.,-0.00112085,0.00071853,0.,-0.
 01747551,0.01315839,-0.00001266,0.00085661,0.00085569,0.00001266,0.000
 85661,0.00085569,0.,0.12517220,-0.13837937,0.,-0.13520111,0.14771488,0
 .00013432,0.00023005,0.00018728,0.00016514,-0.00066694,0.00018766,-0.0
 0008092,0.00001730,-0.00006827,0.00022801,-0.00013101,0.00026406,0.000
 86647,-0.00014133,0.00063851,0.00171457,0.00031946,0.00029737,0.000874
 12,-0.00051437,-0.00011760,-0.22115783,-0.00565287,-0.12250904,0.00094
 405,0.00069912,0.00131284,0.23763997,-0.00117923,0.00191281,-0.0006526
 2,0.00066694,-0.00028816,0.00060024,0.00001730,-0.00012405,0.00007252,
 0.00036299,0.00035750,0.00013684,-0.02464653,-0.00136721,-0.01698985,0
 .00006995,-0.00488453,-0.00355322,0.00038275,0.00115338,0.00077676,-0.
 00525466,-0.04958374,-0.00275986,0.02338505,0.00166968,0.01495196,0.00
 601802,0.05211697,0.00048818,0.00119886,0.00064766,0.00018766,-0.00060
 024,0.00067817,0.00006827,-0.00007252,0.00008773,0.00030186,0.00010478
 ,-0.00000394,-0.01632981,-0.00075838,-0.01249585,0.00060972,-0.0038163
 5,-0.00133159,0.00018172,0.00069426,0.00018182,-0.12235918,-0.00307283
 ,-0.13780168,-0.01568033,-0.00109480,-0.01131347,0.13616955,0.00686488
 ,0.14813222,0.00013432,-0.00023005,-0.00018728,-0.00008092,-0.00001730
 ,0.00006827,0.00016514,0.00066694,-0.00018766,0.00022801,0.00013101,-0
 .00026406,0.00086647,0.00014133,-0.00063851,0.00087412,0.00051437,0.00
 011760,0.00171457,-0.00031946,-0.00029737,-0.22115783,0.00565287,0.122
 50904,0.00094405,-0.00069912,-0.00131284,-0.02132790,0.00017742,0.0163
 6235,0.23763997,0.00117923,0.00191281,-0.00065262,-0.00001730,-0.00012
 405,0.00007252,-0.00066694,-0.00028816,0.00060024,-0.00036299,0.000357
 50,0.00013684,0.02464653,-0.00136720,-0.01698985,-0.00038275,0.0011533
 8,0.00077676,-0.00006995,-0.00488453,-0.00355322,0.00525466,-0.0495837
 4,-0.00275986,-0.02338505,0.00166968,0.01495196,-0.00017742,-0.0009626
 6,0.00055236,-0.00601802,0.05211697,-0.00048818,0.00119886,0.00064766,
 -0.00006827,-0.00007252,0.00008773,-0.00018766,-0.00060024,0.00067817,
 -0.00030186,0.00010478,-0.00000394,0.01632980,-0.00075838,-0.01249585,
 -0.00018172,0.00069426,0.00018182,-0.00060972,-0.00381635,-0.00133159,
 0.12235918,-0.00307283,-0.13780168,0.01568033,-0.00109480,-0.01131347,
 -0.01636235,0.00055236,0.01321892,-0.13616955,0.00686488,0.14813222\\0
 .,0.00000194,-0.00000093,-0.00000059,-0.00000008,-0.00000005,0.0000005
 9,-0.00000008,-0.00000005,0.,-0.00000085,-0.00000065,0.,0.,0.00000323,
 0.00000008,0.,0.00000006,-0.00000008,0.,0.00000006,0.,-0.00000194,-0.0
 0000093,0.,0.00000085,-0.00000065,-0.00000059,0.00000008,-0.00000005,0
 .00000059,0.00000008,-0.00000005\\\@


 A FOOL CAN ASK MORE QUESTIONS THAN
 A WISE MAN CAN ANSWER.
 Job cpu time:       0 days  0 hours  1 minutes 37.2 seconds.
 File lengths (MBytes):  RWF=      6 Int=      0 D2E=      0 Chk=      1 Scr=      1
 Normal termination of Gaussian 09 at Wed Mar 30 17:48:56 2016.
