 Entering Gaussian System, Link 0=/vol-th/home/you/softwares/gaussian/g09D01/g09/g09
 Input=C4H10_2_6_opt_B3LD3.gjf
 Output=C4H10_2_6_opt_B3LD3.log
 Initial command:
 /vol-th/home/you/softwares/gaussian/g09D01/g09/l1.exe "/vol-th/home/you/scratch/Gau-13022.inp" -scrdir="/vol-th/home/you/scratch/"
 Entering Link 1 = /vol-th/home/you/softwares/gaussian/g09D01/g09/l1.exe PID=     13023.
  
 Copyright (c) 1988,1990,1992,1993,1995,1998,2003,2009,2013,
            Gaussian, Inc.  All Rights Reserved.
  
 This is part of the Gaussian(R) 09 program.  It is based on
 the Gaussian(R) 03 system (copyright 2003, Gaussian, Inc.),
 the Gaussian(R) 98 system (copyright 1998, Gaussian, Inc.),
 the Gaussian(R) 94 system (copyright 1995, Gaussian, Inc.),
 the Gaussian 92(TM) system (copyright 1992, Gaussian, Inc.),
 the Gaussian 90(TM) system (copyright 1990, Gaussian, Inc.),
 the Gaussian 88(TM) system (copyright 1988, Gaussian, Inc.),
 the Gaussian 86(TM) system (copyright 1986, Carnegie Mellon
 University), and the Gaussian 82(TM) system (copyright 1983,
 Carnegie Mellon University). Gaussian is a federally registered
 trademark of Gaussian, Inc.
  
 This software contains proprietary and confidential information,
 including trade secrets, belonging to Gaussian, Inc.
  
 This software is provided under written license and may be
 used, copied, transmitted, or stored only in accord with that
 written license.
  
 The following legend is applicable only to US Government
 contracts under FAR:
  
                    RESTRICTED RIGHTS LEGEND
  
 Use, reproduction and disclosure by the US Government is
 subject to restrictions as set forth in subparagraphs (a)
 and (c) of the Commercial Computer Software - Restricted
 Rights clause in FAR 52.227-19.
  
 Gaussian, Inc.
 340 Quinnipiac St., Bldg. 40, Wallingford CT 06492
  
  
 ---------------------------------------------------------------
 Warning -- This program may not be used in any manner that
 competes with the business of Gaussian, Inc. or will provide
 assistance to any competitor of Gaussian, Inc.  The licensee
 of this program is prohibited from giving any competitor of
 Gaussian, Inc. access to this program.  By using this program,
 the user acknowledges that Gaussian, Inc. is engaged in the
 business of creating and licensing software in the field of
 computational chemistry and represents and warrants to the
 licensee that it is not a competitor of Gaussian, Inc. and that
 it will not use this program in any manner prohibited above.
 ---------------------------------------------------------------
  

 Cite this work as:
 Gaussian 09, Revision D.01,
 M. J. Frisch, G. W. Trucks, H. B. Schlegel, G. E. Scuseria, 
 M. A. Robb, J. R. Cheeseman, G. Scalmani, V. Barone, B. Mennucci, 
 G. A. Petersson, H. Nakatsuji, M. Caricato, X. Li, H. P. Hratchian, 
 A. F. Izmaylov, J. Bloino, G. Zheng, J. L. Sonnenberg, M. Hada, 
 M. Ehara, K. Toyota, R. Fukuda, J. Hasegawa, M. Ishida, T. Nakajima, 
 Y. Honda, O. Kitao, H. Nakai, T. Vreven, J. A. Montgomery, Jr., 
 J. E. Peralta, F. Ogliaro, M. Bearpark, J. J. Heyd, E. Brothers, 
 K. N. Kudin, V. N. Staroverov, T. Keith, R. Kobayashi, J. Normand, 
 K. Raghavachari, A. Rendell, J. C. Burant, S. S. Iyengar, J. Tomasi, 
 M. Cossi, N. Rega, J. M. Millam, M. Klene, J. E. Knox, J. B. Cross, 
 V. Bakken, C. Adamo, J. Jaramillo, R. Gomperts, R. E. Stratmann, 
 O. Yazyev, A. J. Austin, R. Cammi, C. Pomelli, J. W. Ochterski, 
 R. L. Martin, K. Morokuma, V. G. Zakrzewski, G. A. Voth, 
 P. Salvador, J. J. Dannenberg, S. Dapprich, A. D. Daniels, 
 O. Farkas, J. B. Foresman, J. V. Ortiz, J. Cioslowski, 
 and D. J. Fox, Gaussian, Inc., Wallingford CT, 2013.
 
 ******************************************
 Gaussian 09:  ES64L-G09RevD.01 24-Apr-2013
                30-Mar-2016 
 ******************************************
 %mem=16GB
 %nprocshared=12
 Will use up to   12 processors via shared memory.
 ----------------------------------------------------------------------
 #p B3LYP/6-31G(d) opt=tight int=ultrafine freq EmpiricalDispersion=GD3
 BJ
 ----------------------------------------------------------------------
 1/7=10,14=-1,18=20,19=15,26=4,38=1/1,3;
 2/9=110,12=2,17=6,18=5,40=1/2;
 3/5=1,6=6,7=1,11=2,16=1,25=1,30=1,71=1,74=-5,75=-5,124=41/1,2,3;
 4//1;
 5/5=2,38=5/2;
 6/7=2,8=2,9=2,10=2,28=1/1;
 7//1,2,3,16;
 1/7=10,14=-1,18=20,19=15,26=4/3(2);
 2/9=110/2;
 99//99;
 2/9=110/2;
 3/5=1,6=6,7=1,11=2,16=1,25=1,30=1,71=1,74=-5,75=-5,124=41/1,2,3;
 4/5=5,16=3,69=1/1;
 5/5=2,38=5/2;
 7//1,2,3,16;
 1/7=10,14=-1,18=20,19=15,26=4/3(-5);
 2/9=110/2;
 6/7=2,8=2,9=2,10=2,19=2,28=1/1;
 99/9=1/99;
 Leave Link    1 at Wed Mar 30 17:49:15 2016, MaxMem=  2147483648 cpu:         0.7
 (Enter /vol-th/home/you/softwares/gaussian/g09D01/g09/l101.exe)
 ---------------------------------------------
 using B3LYP/6-31G(d) to do opt and freq calc.
 ---------------------------------------------
 Symbolic Z-matrix:
 Charge =  0 Multiplicity = 1
 C                    -0.16576   1.44963  -0.09581 
 H                    -0.17194   1.50266  -1.1924 
 H                     0.65451   2.08213   0.26339 
 H                    -1.10741   1.88099   0.26366 
 C                     0.00004  -0.00008   0.37555 
 H                     0.00011  -0.0002    1.47575 
 C                     1.33839  -0.58128  -0.09624 
 H                     2.18291   0.01906   0.26214 
 H                     1.47698  -1.60766   0.26344 
 H                     1.38645  -0.60304  -1.19282 
 C                    -1.17265  -0.86831  -0.09617 
 H                    -1.07678  -1.89938   0.26402 
 H                    -2.13087  -0.47355   0.26166 
 H                    -1.21407  -0.90076  -1.19278 
 
 NAtoms=     14 NQM=       14 NQMF=       0 NMMI=      0 NMMIF=      0
                NMic=       0 NMicF=      0.
                    Isotopes and Nuclear Properties:
 (Nuclear quadrupole moments (NQMom) in fm**2, nuclear magnetic moments (NMagM)
  in nuclear magnetons)

  Atom         1           2           3           4           5           6           7           8           9          10
 IAtWgt=          12           1           1           1          12           1          12           1           1           1
 AtmWgt=  12.0000000   1.0078250   1.0078250   1.0078250  12.0000000   1.0078250  12.0000000   1.0078250   1.0078250   1.0078250
 NucSpn=           0           1           1           1           0           1           0           1           1           1
 AtZEff=   0.0000000   0.0000000   0.0000000   0.0000000   0.0000000   0.0000000   0.0000000   0.0000000   0.0000000   0.0000000
 NQMom=    0.0000000   0.0000000   0.0000000   0.0000000   0.0000000   0.0000000   0.0000000   0.0000000   0.0000000   0.0000000
 NMagM=    0.0000000   2.7928460   2.7928460   2.7928460   0.0000000   2.7928460   0.0000000   2.7928460   2.7928460   2.7928460
 AtZNuc=   6.0000000   1.0000000   1.0000000   1.0000000   6.0000000   1.0000000   6.0000000   1.0000000   1.0000000   1.0000000

  Atom        11          12          13          14
 IAtWgt=          12           1           1           1
 AtmWgt=  12.0000000   1.0078250   1.0078250   1.0078250
 NucSpn=           0           1           1           1
 AtZEff=   0.0000000   0.0000000   0.0000000   0.0000000
 NQMom=    0.0000000   0.0000000   0.0000000   0.0000000
 NMagM=    0.0000000   2.7928460   2.7928460   2.7928460
 AtZNuc=   6.0000000   1.0000000   1.0000000   1.0000000
 Leave Link  101 at Wed Mar 30 17:49:15 2016, MaxMem=  2147483648 cpu:         5.1
 (Enter /vol-th/home/you/softwares/gaussian/g09D01/g09/l103.exe)

 GradGradGradGradGradGradGradGradGradGradGradGradGradGradGradGradGradGrad
 Berny optimization.
 Initialization pass.
                           ----------------------------
                           !    Initial Parameters    !
                           ! (Angstroms and Degrees)  !
 --------------------------                            --------------------------
 ! Name  Definition              Value          Derivative Info.                !
 --------------------------------------------------------------------------------
 ! R1    R(1,2)                  1.0979         estimate D2E/DX2                !
 ! R2    R(1,3)                  1.0963         estimate D2E/DX2                !
 ! R3    R(1,4)                  1.0964         estimate D2E/DX2                !
 ! R4    R(1,5)                  1.5334         estimate D2E/DX2                !
 ! R5    R(5,6)                  1.1002         estimate D2E/DX2                !
 ! R6    R(5,7)                  1.5335         estimate D2E/DX2                !
 ! R7    R(5,11)                 1.5335         estimate D2E/DX2                !
 ! R8    R(7,8)                  1.0964         estimate D2E/DX2                !
 ! R9    R(7,9)                  1.0964         estimate D2E/DX2                !
 ! R10   R(7,10)                 1.0979         estimate D2E/DX2                !
 ! R11   R(11,12)                1.0964         estimate D2E/DX2                !
 ! R12   R(11,13)                1.0964         estimate D2E/DX2                !
 ! R13   R(11,14)                1.0979         estimate D2E/DX2                !
 ! A1    A(2,1,3)              107.6737         estimate D2E/DX2                !
 ! A2    A(2,1,4)              107.6771         estimate D2E/DX2                !
 ! A3    A(2,1,5)              110.6898         estimate D2E/DX2                !
 ! A4    A(3,1,4)              107.9506         estimate D2E/DX2                !
 ! A5    A(3,1,5)              111.3353         estimate D2E/DX2                !
 ! A6    A(4,1,5)              111.3497         estimate D2E/DX2                !
 ! A7    A(1,5,6)              107.9087         estimate D2E/DX2                !
 ! A8    A(1,5,7)              110.9843         estimate D2E/DX2                !
 ! A9    A(1,5,11)             110.9797         estimate D2E/DX2                !
 ! A10   A(6,5,7)              107.9122         estimate D2E/DX2                !
 ! A11   A(6,5,11)             107.915          estimate D2E/DX2                !
 ! A12   A(7,5,11)             110.9893         estimate D2E/DX2                !
 ! A13   A(5,7,8)              111.3567         estimate D2E/DX2                !
 ! A14   A(5,7,9)              111.3585         estimate D2E/DX2                !
 ! A15   A(5,7,10)             110.6717         estimate D2E/DX2                !
 ! A16   A(8,7,9)              107.939          estimate D2E/DX2                !
 ! A17   A(8,7,10)             107.6759         estimate D2E/DX2                !
 ! A18   A(9,7,10)             107.6736         estimate D2E/DX2                !
 ! A19   A(5,11,12)            111.3783         estimate D2E/DX2                !
 ! A20   A(5,11,13)            111.3517         estimate D2E/DX2                !
 ! A21   A(5,11,14)            110.6615         estimate D2E/DX2                !
 ! A22   A(12,11,13)           107.9275         estimate D2E/DX2                !
 ! A23   A(12,11,14)           107.6781         estimate D2E/DX2                !
 ! A24   A(13,11,14)           107.678          estimate D2E/DX2                !
 ! D1    D(2,1,5,6)           -179.997          estimate D2E/DX2                !
 ! D2    D(2,1,5,7)             61.9605         estimate D2E/DX2                !
 ! D3    D(2,1,5,11)           -61.9537         estimate D2E/DX2                !
 ! D4    D(3,1,5,6)             60.2729         estimate D2E/DX2                !
 ! D5    D(3,1,5,7)            -57.7697         estimate D2E/DX2                !
 ! D6    D(3,1,5,11)           178.3161         estimate D2E/DX2                !
 ! D7    D(4,1,5,6)            -60.253          estimate D2E/DX2                !
 ! D8    D(4,1,5,7)           -178.2956         estimate D2E/DX2                !
 ! D9    D(4,1,5,11)            57.7902         estimate D2E/DX2                !
 ! D10   D(1,5,7,8)             57.7255         estimate D2E/DX2                !
 ! D11   D(1,5,7,9)            178.2573         estimate D2E/DX2                !
 ! D12   D(1,5,7,10)           -62.0094         estimate D2E/DX2                !
 ! D13   D(6,5,7,8)            -60.3149         estimate D2E/DX2                !
 ! D14   D(6,5,7,9)             60.2169         estimate D2E/DX2                !
 ! D15   D(6,5,7,10)           179.9502         estimate D2E/DX2                !
 ! D16   D(11,5,7,8)          -178.3658         estimate D2E/DX2                !
 ! D17   D(11,5,7,9)           -57.834          estimate D2E/DX2                !
 ! D18   D(11,5,7,10)           61.8993         estimate D2E/DX2                !
 ! D19   D(1,5,11,12)         -178.2074         estimate D2E/DX2                !
 ! D20   D(1,5,11,13)          -57.6801         estimate D2E/DX2                !
 ! D21   D(1,5,11,14)           62.0475         estimate D2E/DX2                !
 ! D22   D(6,5,11,12)          -60.168          estimate D2E/DX2                !
 ! D23   D(6,5,11,13)           60.3594         estimate D2E/DX2                !
 ! D24   D(6,5,11,14)         -179.9131         estimate D2E/DX2                !
 ! D25   D(7,5,11,12)           57.8812         estimate D2E/DX2                !
 ! D26   D(7,5,11,13)          178.4086         estimate D2E/DX2                !
 ! D27   D(7,5,11,14)          -61.8639         estimate D2E/DX2                !
 --------------------------------------------------------------------------------
 Trust Radius=3.00D-01 FncErr=1.00D-07 GrdErr=1.00D-06
 Number of steps in this run=     74 maximum allowed number of steps=    100.
 GradGradGradGradGradGradGradGradGradGradGradGradGradGradGradGradGradGrad

 Leave Link  103 at Wed Mar 30 17:49:15 2016, MaxMem=  2147483648 cpu:         0.2
 (Enter /vol-th/home/you/softwares/gaussian/g09D01/g09/l202.exe)
                          Input orientation:                          
 ---------------------------------------------------------------------
 Center     Atomic      Atomic             Coordinates (Angstroms)
 Number     Number       Type             X           Y           Z
 ---------------------------------------------------------------------
      1          6           0       -0.165763    1.449626   -0.095813
      2          1           0       -0.171939    1.502661   -1.192404
      3          1           0        0.654509    2.082129    0.263392
      4          1           0       -1.107410    1.880992    0.263658
      5          6           0        0.000036   -0.000082    0.375547
      6          1           0        0.000106   -0.000198    1.475745
      7          6           0        1.338394   -0.581277   -0.096237
      8          1           0        2.182912    0.019062    0.262141
      9          1           0        1.476984   -1.607655    0.263438
     10          1           0        1.386448   -0.603035   -1.192821
     11          6           0       -1.172650   -0.868313   -0.096174
     12          1           0       -1.076775   -1.899379    0.264024
     13          1           0       -2.130870   -0.473546    0.261662
     14          1           0       -1.214071   -0.900755   -1.192775
 ---------------------------------------------------------------------
                    Distance matrix (angstroms):
                    1          2          3          4          5
     1  C    0.000000
     2  H    1.097890   0.000000
     3  H    1.096328   1.771480   0.000000
     4  H    1.096355   1.771541   1.773363   0.000000
     5  C    1.533402   2.178596   2.185524   2.185725   0.000000
     6  H    2.144597   3.067117   2.496824   2.496923   1.100198
     7  C    2.527262   2.797407   2.773223   3.489162   1.533483
     8  H    2.773251   3.140397   2.567540   3.780609   2.185904
     9  H    3.489219   3.809526   3.780340   4.341630   2.185917
    10  H    2.797535   2.619642   3.141082   3.809337   2.178410
    11  C    2.527185   2.797259   3.488969   2.773520   1.533473
    12  H    3.489307   3.809696   4.341630   3.780495   2.186158
    13  H    2.772729   3.139604   3.780187   2.567357   2.185840
    14  H    2.797600   2.619627   3.809148   3.141765   2.178279
                    6          7          8          9         10
     6  H    0.000000
     7  C    2.144713   0.000000
     8  H    2.497568   1.096381   0.000000
     9  H    2.496953   1.096369   1.773286   0.000000
    10  H    3.067018   1.097852   1.771517   1.771482   0.000000
    11  C    2.144740   2.527396   3.489358   2.774258   2.796782
    12  H    2.496964   2.774927   3.782325   2.570367   3.141715
    13  H    2.497822   3.489340   4.341817   3.781907   3.808387
    14  H    3.066957   2.796344   3.808193   3.140389   2.617506
                   11         12         13         14
    11  C    0.000000
    12  H    1.096372   0.000000
    13  H    1.096391   1.773167   0.000000
    14  H    1.097862   1.771543   1.771557   0.000000
 Stoichiometry    C4H10
 Framework group  C1[X(C4H10)]
 Deg. of freedom    36
 Full point group                 C1      NOp   1
 Largest Abelian subgroup         C1      NOp   1
 Largest concise Abelian subgroup C1      NOp   1
                         Standard orientation:                         
 ---------------------------------------------------------------------
 Center     Atomic      Atomic             Coordinates (Angstroms)
 Number     Number       Type             X           Y           Z
 ---------------------------------------------------------------------
      1          6           0        0.163772    1.449852    0.095813
      2          1           0        0.169876    1.502896    1.192404
      3          1           0       -0.657367    2.081228   -0.263392
      4          1           0        1.104826    1.882511   -0.263658
      5          6           0       -0.000036   -0.000082   -0.375547
      6          1           0       -0.000106   -0.000198   -1.475745
      7          6           0       -1.337595   -0.583114    0.096237
      8          1           0       -2.182936    0.016065   -0.262141
      9          1           0       -1.474775   -1.609681   -0.263438
     10          1           0       -1.385619   -0.604938    1.192821
     11          6           0        1.173841   -0.866702    0.096174
     12          1           0        1.079382   -1.897899   -0.264024
     13          1           0        2.131518   -0.470620   -0.261662
     14          1           0        1.215306   -0.899087    1.192775
 ---------------------------------------------------------------------
 Rotational constants (GHZ):      7.7613078      7.7599486      4.4973130
 Leave Link  202 at Wed Mar 30 17:49:15 2016, MaxMem=  2147483648 cpu:         0.1
 (Enter /vol-th/home/you/softwares/gaussian/g09D01/g09/l301.exe)
 Standard basis: 6-31G(d) (6D, 7F)
 Ernie: Thresh=  0.10000D-02 Tol=  0.10000D-05 Strict=F.
 There are    80 symmetry adapted cartesian basis functions of A   symmetry.
 There are    80 symmetry adapted basis functions of A   symmetry.
    80 basis functions,   152 primitive gaussians,    80 cartesian basis functions
    17 alpha electrons       17 beta electrons
       nuclear repulsion energy       134.2398024372 Hartrees.
 IExCor=  402 DFT=T Ex+Corr=B3LYP ExCW=0 ScaHFX=  0.200000
 ScaDFX=  0.800000  0.720000  1.000000  0.810000 ScalE2=  1.000000  1.000000
 IRadAn=      5 IRanWt=     -1 IRanGd=            0 ICorTp=0 IEmpDi=141
 NAtoms=   14 NActive=   14 NUniq=   14 SFac= 1.00D+00 NAtFMM=   60 NAOKFM=F Big=F
 Integral buffers will be    131072 words long.
 Raffenetti 2 integral format.
 Two-electron integral symmetry is turned on.
 R6Disp:  Grimme-D3(BJ) Dispersion energy=       -0.0154699210 Hartrees.
 Nuclear repulsion after empirical dispersion term =      134.2243325162 Hartrees.
 Leave Link  301 at Wed Mar 30 17:49:15 2016, MaxMem=  2147483648 cpu:         0.8
 (Enter /vol-th/home/you/softwares/gaussian/g09D01/g09/l302.exe)
 NPDir=0 NMtPBC=     1 NCelOv=     1 NCel=       1 NClECP=     1 NCelD=      1
         NCelK=      1 NCelE2=     1 NClLst=     1 CellRange=     0.0.
 One-electron integrals computed using PRISM.
 NBasis=    80 RedAO= T EigKep=  4.94D-03  NBF=    80
 NBsUse=    80 1.00D-06 EigRej= -1.00D+00 NBFU=    80
 Precomputing XC quadrature grid using
 IXCGrd= 4 IRadAn=           5 IRanWt=          -1 IRanGd=           0 AccXCQ= 0.00D+00.
 Generated NRdTot=       0 NPtTot=           0 NUsed=           0 NTot=          32
 NSgBfM=    80    80    80    80    80 MxSgAt=    14 MxSgA2=    14.
 Leave Link  302 at Wed Mar 30 17:49:16 2016, MaxMem=  2147483648 cpu:         2.3
 (Enter /vol-th/home/you/softwares/gaussian/g09D01/g09/l303.exe)
 DipDrv:  MaxL=1.
 Leave Link  303 at Wed Mar 30 17:49:16 2016, MaxMem=  2147483648 cpu:         0.4
 (Enter /vol-th/home/you/softwares/gaussian/g09D01/g09/l401.exe)
 ExpMin= 1.61D-01 ExpMax= 3.05D+03 ExpMxC= 4.57D+02 IAcc=3 IRadAn=         5 AccDes= 0.00D+00
 Harris functional with IExCor=  402 and IRadAn=       5 diagonalized for initial guess.
 HarFok:  IExCor=  402 AccDes= 0.00D+00 IRadAn=         5 IDoV= 1 UseB2=F ITyADJ=14
 ICtDFT=  3500011 ScaDFX=  1.000000  1.000000  1.000000  1.000000
 FoFCou: FMM=F IPFlag=           0 FMFlag=      100000 FMFlg1=           0
         NFxFlg=           0 DoJE=T BraDBF=F KetDBF=T FulRan=T
         wScrn=  0.000000 ICntrl=     500 IOpCl=  0 I1Cent=   200000004 NGrid=           0
         NMat0=    1 NMatS0=      1 NMatT0=    0 NMatD0=    1 NMtDS0=    0 NMtDT0=    0
 Petite list used in FoFCou.
 Harris En= -158.542038525119    
 JPrj=0 DoOrth=F DoCkMO=F.
 Leave Link  401 at Wed Mar 30 17:49:16 2016, MaxMem=  2147483648 cpu:         4.5
 (Enter /vol-th/home/you/softwares/gaussian/g09D01/g09/l502.exe)
 Closed shell SCF:
 Using DIIS extrapolation, IDIIS=  1040.
 Integral symmetry usage will be decided dynamically.
 Keep R1 ints in memory in canonical form, NReq=6194836.
 IVT=       39334 IEndB=       39334 NGot=  2147483648 MDV=  2142193895
 LenX=  2142193895 LenY=  2142187054
 Requested convergence on RMS density matrix=1.00D-08 within 128 cycles.
 Requested convergence on MAX density matrix=1.00D-06.
 Requested convergence on             energy=1.00D-06.
 No special actions if energy rises.
 FoFCou: FMM=F IPFlag=           0 FMFlag=           0 FMFlg1=           0
         NFxFlg=           0 DoJE=F BraDBF=F KetDBF=F FulRan=T
         wScrn=  0.000000 ICntrl=     600 IOpCl=  0 I1Cent=           0 NGrid=           0
         NMat0=    1 NMatS0=   3240 NMatT0=    0 NMatD0=    1 NMtDS0=    0 NMtDT0=    0
 Symmetry not used in FoFCou.
 Integral accuracy reduced to 1.0D-05 until final iterations.

 Cycle   1  Pass 0  IDiag  1:
 E= -158.265038673962    
 DIIS: error= 5.82D-02 at cycle   1 NSaved=   1.
 NSaved= 1 IEnMin= 1 EnMin= -158.265038673962     IErMin= 1 ErrMin= 5.82D-02
 ErrMax= 5.82D-02  0.00D+00 EMaxC= 1.00D-01 BMatC= 1.87D-01 BMatP= 1.87D-01
 IDIUse=3 WtCom= 4.18D-01 WtEn= 5.82D-01
 Coeff-Com:  0.100D+01
 Coeff-En:   0.100D+01
 Coeff:      0.100D+01
 Gap=     0.347 Goal=   None    Shift=    0.000
 GapD=    0.347 DampG=1.000 DampE=0.500 DampFc=0.5000 IDamp=-1.
 Damping current iteration by 5.00D-01
 RMSDP=1.24D-02 MaxDP=1.39D-01              OVMax= 1.84D-01

 Cycle   2  Pass 0  IDiag  1:
 E= -158.357099436437     Delta-E=       -0.092060762475 Rises=F Damp=T
 DIIS: error= 1.01D-02 at cycle   2 NSaved=   2.
 NSaved= 2 IEnMin= 2 EnMin= -158.357099436437     IErMin= 2 ErrMin= 1.01D-02
 ErrMax= 1.01D-02  0.00D+00 EMaxC= 1.00D-01 BMatC= 7.23D-03 BMatP= 1.87D-01
 IDIUse=3 WtCom= 8.99D-01 WtEn= 1.01D-01
 Coeff-Com:  0.859D-01 0.914D+00
 Coeff-En:   0.142D+00 0.858D+00
 Coeff:      0.915D-01 0.909D+00
 Gap=     0.415 Goal=   None    Shift=    0.000
 RMSDP=1.81D-03 MaxDP=2.00D-02 DE=-9.21D-02 OVMax= 1.04D-01

 Cycle   3  Pass 0  IDiag  1:
 E= -158.473532055420     Delta-E=       -0.116432618983 Rises=F Damp=F
 DIIS: error= 3.22D-03 at cycle   3 NSaved=   3.
 NSaved= 3 IEnMin= 3 EnMin= -158.473532055420     IErMin= 3 ErrMin= 3.22D-03
 ErrMax= 3.22D-03  0.00D+00 EMaxC= 1.00D-01 BMatC= 7.62D-04 BMatP= 7.23D-03
 IDIUse=3 WtCom= 9.68D-01 WtEn= 3.22D-02
 Coeff-Com:  0.957D-02 0.185D+00 0.805D+00
 Coeff-En:   0.000D+00 0.000D+00 0.100D+01
 Coeff:      0.926D-02 0.179D+00 0.811D+00
 Gap=     0.402 Goal=   None    Shift=    0.000
 RMSDP=5.48D-04 MaxDP=9.42D-03 DE=-1.16D-01 OVMax= 9.82D-03

 Cycle   4  Pass 0  IDiag  1:
 E= -158.473936916046     Delta-E=       -0.000404860626 Rises=F Damp=F
 DIIS: error= 2.41D-03 at cycle   4 NSaved=   4.
 NSaved= 4 IEnMin= 4 EnMin= -158.473936916046     IErMin= 4 ErrMin= 2.41D-03
 ErrMax= 2.41D-03  0.00D+00 EMaxC= 1.00D-01 BMatC= 3.49D-04 BMatP= 7.62D-04
 IDIUse=3 WtCom= 9.76D-01 WtEn= 2.41D-02
 Coeff-Com:  0.304D-04 0.250D-01 0.406D+00 0.569D+00
 Coeff-En:   0.000D+00 0.000D+00 0.299D+00 0.701D+00
 Coeff:      0.296D-04 0.244D-01 0.403D+00 0.572D+00
 Gap=     0.404 Goal=   None    Shift=    0.000
 RMSDP=2.20D-04 MaxDP=4.52D-03 DE=-4.05D-04 OVMax= 4.37D-03

 Cycle   5  Pass 0  IDiag  1:
 E= -158.474256822962     Delta-E=       -0.000319906916 Rises=F Damp=F
 DIIS: error= 3.12D-04 at cycle   5 NSaved=   5.
 NSaved= 5 IEnMin= 5 EnMin= -158.474256822962     IErMin= 5 ErrMin= 3.12D-04
 ErrMax= 3.12D-04  0.00D+00 EMaxC= 1.00D-01 BMatC= 8.43D-06 BMatP= 3.49D-04
 IDIUse=3 WtCom= 9.97D-01 WtEn= 3.12D-03
 Coeff-Com:  0.459D-04-0.107D-02 0.107D+00 0.215D+00 0.679D+00
 Coeff-En:   0.000D+00 0.000D+00 0.000D+00 0.000D+00 0.100D+01
 Coeff:      0.457D-04-0.106D-02 0.107D+00 0.215D+00 0.680D+00
 Gap=     0.404 Goal=   None    Shift=    0.000
 RMSDP=3.77D-05 MaxDP=6.55D-04 DE=-3.20D-04 OVMax= 7.36D-04

 Cycle   6  Pass 0  IDiag  1:
 E= -158.474264546464     Delta-E=       -0.000007723502 Rises=F Damp=F
 DIIS: error= 4.14D-05 at cycle   6 NSaved=   6.
 NSaved= 6 IEnMin= 6 EnMin= -158.474264546464     IErMin= 6 ErrMin= 4.14D-05
 ErrMax= 4.14D-05  0.00D+00 EMaxC= 1.00D-01 BMatC= 1.18D-07 BMatP= 8.43D-06
 IDIUse=1 WtCom= 1.00D+00 WtEn= 0.00D+00
 Coeff-Com:  0.110D-03-0.927D-03 0.261D-01 0.571D-01 0.221D+00 0.696D+00
 Coeff:      0.110D-03-0.927D-03 0.261D-01 0.571D-01 0.221D+00 0.696D+00
 Gap=     0.404 Goal=   None    Shift=    0.000
 RMSDP=7.01D-06 MaxDP=5.92D-05 DE=-7.72D-06 OVMax= 1.34D-04

 Initial convergence to 1.0D-05 achieved.  Increase integral accuracy.
 Cycle   7  Pass 1  IDiag  1:
 E= -158.474266234596     Delta-E=       -0.000001688132 Rises=F Damp=F
 DIIS: error= 3.83D-06 at cycle   1 NSaved=   1.
 NSaved= 1 IEnMin= 1 EnMin= -158.474266234596     IErMin= 1 ErrMin= 3.83D-06
 ErrMax= 3.83D-06  0.00D+00 EMaxC= 1.00D-01 BMatC= 2.62D-09 BMatP= 2.62D-09
 IDIUse=1 WtCom= 1.00D+00 WtEn= 0.00D+00
 Coeff-Com:  0.100D+01
 Coeff:      0.100D+01
 Gap=     0.404 Goal=   None    Shift=    0.000
 RMSDP=7.01D-06 MaxDP=5.92D-05 DE=-1.69D-06 OVMax= 2.19D-05

 Cycle   8  Pass 1  IDiag  1:
 E= -158.474266237414     Delta-E=       -0.000000002818 Rises=F Damp=F
 DIIS: error= 3.07D-06 at cycle   2 NSaved=   2.
 NSaved= 2 IEnMin= 2 EnMin= -158.474266237414     IErMin= 2 ErrMin= 3.07D-06
 ErrMax= 3.07D-06  0.00D+00 EMaxC= 1.00D-01 BMatC= 7.18D-10 BMatP= 2.62D-09
 IDIUse=1 WtCom= 1.00D+00 WtEn= 0.00D+00
 Coeff-Com:  0.303D+00 0.697D+00
 Coeff:      0.303D+00 0.697D+00
 Gap=     0.404 Goal=   None    Shift=    0.000
 RMSDP=5.53D-07 MaxDP=6.27D-06 DE=-2.82D-09 OVMax= 1.00D-05

 Cycle   9  Pass 1  IDiag  1:
 E= -158.474266238114     Delta-E=       -0.000000000700 Rises=F Damp=F
 DIIS: error= 1.27D-06 at cycle   3 NSaved=   3.
 NSaved= 3 IEnMin= 3 EnMin= -158.474266238114     IErMin= 3 ErrMin= 1.27D-06
 ErrMax= 1.27D-06  0.00D+00 EMaxC= 1.00D-01 BMatC= 1.16D-10 BMatP= 7.18D-10
 IDIUse=1 WtCom= 1.00D+00 WtEn= 0.00D+00
 Coeff-Com:  0.236D-01 0.283D+00 0.693D+00
 Coeff:      0.236D-01 0.283D+00 0.693D+00
 Gap=     0.404 Goal=   None    Shift=    0.000
 RMSDP=1.58D-07 MaxDP=1.91D-06 DE=-7.00D-10 OVMax= 2.71D-06

 Cycle  10  Pass 1  IDiag  1:
 E= -158.474266238224     Delta-E=       -0.000000000110 Rises=F Damp=F
 DIIS: error= 3.16D-07 at cycle   4 NSaved=   4.
 NSaved= 4 IEnMin= 4 EnMin= -158.474266238224     IErMin= 4 ErrMin= 3.16D-07
 ErrMax= 3.16D-07  0.00D+00 EMaxC= 1.00D-01 BMatC= 9.30D-12 BMatP= 1.16D-10
 IDIUse=1 WtCom= 1.00D+00 WtEn= 0.00D+00
 Coeff-Com: -0.834D-02 0.836D-01 0.307D+00 0.617D+00
 Coeff:     -0.834D-02 0.836D-01 0.307D+00 0.617D+00
 Gap=     0.404 Goal=   None    Shift=    0.000
 RMSDP=4.96D-08 MaxDP=5.63D-07 DE=-1.10D-10 OVMax= 8.88D-07

 Cycle  11  Pass 1  IDiag  1:
 E= -158.474266238235     Delta-E=       -0.000000000011 Rises=F Damp=F
 DIIS: error= 4.64D-08 at cycle   5 NSaved=   5.
 NSaved= 5 IEnMin= 5 EnMin= -158.474266238235     IErMin= 5 ErrMin= 4.64D-08
 ErrMax= 4.64D-08  0.00D+00 EMaxC= 1.00D-01 BMatC= 1.51D-13 BMatP= 9.30D-12
 IDIUse=1 WtCom= 1.00D+00 WtEn= 0.00D+00
 Coeff-Com: -0.355D-02 0.192D-01 0.769D-01 0.199D+00 0.709D+00
 Coeff:     -0.355D-02 0.192D-01 0.769D-01 0.199D+00 0.709D+00
 Gap=     0.404 Goal=   None    Shift=    0.000
 RMSDP=6.02D-09 MaxDP=1.15D-07 DE=-1.09D-11 OVMax= 1.14D-07

 SCF Done:  E(RB3LYP) =  -158.474266238     A.U. after   11 cycles
            NFock= 11  Conv=0.60D-08     -V/T= 2.0105
 KE= 1.568198273198D+02 PE=-6.338509823635D+02 EE= 1.843325562893D+02
 Leave Link  502 at Wed Mar 30 17:49:19 2016, MaxMem=  2147483648 cpu:        29.2
 (Enter /vol-th/home/you/softwares/gaussian/g09D01/g09/l601.exe)
 Copying SCF densities to generalized density rwf, IOpCl= 0 IROHF=0.

 **********************************************************************

            Population analysis using the SCF density.

 **********************************************************************

 Orbital symmetries:
       Occupied  (A) (A) (A) (A) (A) (A) (A) (A) (A) (A) (A) (A)
                 (A) (A) (A) (A) (A)
       Virtual   (A) (A) (A) (A) (A) (A) (A) (A) (A) (A) (A) (A)
                 (A) (A) (A) (A) (A) (A) (A) (A) (A) (A) (A) (A)
                 (A) (A) (A) (A) (A) (A) (A) (A) (A) (A) (A) (A)
                 (A) (A) (A) (A) (A) (A) (A) (A) (A) (A) (A) (A)
                 (A) (A) (A) (A) (A) (A) (A) (A) (A) (A) (A) (A)
                 (A) (A) (A)
 The electronic state is 1-A.
 Alpha  occ. eigenvalues --  -10.18439 -10.16829 -10.16829 -10.16827  -0.79564
 Alpha  occ. eigenvalues --   -0.67642  -0.67642  -0.55473  -0.45738  -0.42526
 Alpha  occ. eigenvalues --   -0.42519  -0.37865  -0.37862  -0.35896  -0.32234
 Alpha  occ. eigenvalues --   -0.32232  -0.31793
 Alpha virt. eigenvalues --    0.08604   0.13665   0.15443   0.15447   0.15901
 Alpha virt. eigenvalues --    0.15901   0.17606   0.19715   0.19718   0.22689
 Alpha virt. eigenvalues --    0.22845   0.26020   0.26026   0.51390   0.51399
 Alpha virt. eigenvalues --    0.52375   0.53844   0.53849   0.64173   0.71818
 Alpha virt. eigenvalues --    0.72298   0.72301   0.73852   0.73862   0.86961
 Alpha virt. eigenvalues --    0.87854   0.89727   0.89736   0.90095   0.91719
 Alpha virt. eigenvalues --    0.94055   0.94060   0.96689   0.98834   0.98839
 Alpha virt. eigenvalues --    1.01610   1.42764   1.42809   1.44918   1.44953
 Alpha virt. eigenvalues --    1.64888   1.73251   1.79473   1.79479   1.95240
 Alpha virt. eigenvalues --    1.95255   2.01008   2.08549   2.08572   2.13963
 Alpha virt. eigenvalues --    2.24153   2.24692   2.24696   2.27081   2.48477
 Alpha virt. eigenvalues --    2.51065   2.51069   2.70387   2.70395   4.15118
 Alpha virt. eigenvalues --    4.29098   4.29100   4.55814
          Condensed to atoms (all electrons):
               1          2          3          4          5          6
     1  C    5.098779   0.372051   0.370483   0.370484   0.388615  -0.047522
     2  H    0.372051   0.585049  -0.031765  -0.031764  -0.034822   0.005954
     3  H    0.370483  -0.031765   0.581353  -0.030375  -0.029950  -0.003424
     4  H    0.370484  -0.031764  -0.030375   0.581332  -0.029930  -0.003425
     5  C    0.388615  -0.034822  -0.029950  -0.029930   4.796151   0.383824
     6  H   -0.047522   0.005954  -0.003424  -0.003425   0.383824   0.638554
     7  C   -0.054758  -0.005799  -0.003755   0.005286   0.388586  -0.047523
     8  H   -0.003760  -0.000245   0.004066  -0.000045  -0.029934  -0.003411
     9  H    0.005285  -0.000041  -0.000046  -0.000190  -0.029921  -0.003431
    10  H   -0.005797   0.005157  -0.000245  -0.000042  -0.034818   0.005954
    11  C   -0.054766  -0.005800   0.005288  -0.003755   0.388591  -0.047522
    12  H    0.005284  -0.000041  -0.000190  -0.000046  -0.029895  -0.003436
    13  H   -0.003767  -0.000245  -0.000045   0.004067  -0.029948  -0.003404
    14  H   -0.005794   0.005156  -0.000042  -0.000245  -0.034831   0.005955
               7          8          9         10         11         12
     1  C   -0.054758  -0.003760   0.005285  -0.005797  -0.054766   0.005284
     2  H   -0.005799  -0.000245  -0.000041   0.005157  -0.005800  -0.000041
     3  H   -0.003755   0.004066  -0.000046  -0.000245   0.005288  -0.000190
     4  H    0.005286  -0.000045  -0.000190  -0.000042  -0.003755  -0.000046
     5  C    0.388586  -0.029934  -0.029921  -0.034818   0.388591  -0.029895
     6  H   -0.047523  -0.003411  -0.003431   0.005954  -0.047522  -0.003436
     7  C    5.098784   0.370487   0.370488   0.372040  -0.054725  -0.003727
     8  H    0.370487   0.581354  -0.030397  -0.031760   0.005283  -0.000046
     9  H    0.370488  -0.030397   0.581340  -0.031762  -0.003731   0.004042
    10  H    0.372040  -0.031760  -0.031762   0.585041  -0.005823  -0.000245
    11  C   -0.054725   0.005283  -0.003731  -0.005823   5.098775   0.370484
    12  H   -0.003727  -0.000046   0.004042  -0.000245   0.370484   0.581338
    13  H    0.005284  -0.000190  -0.000046  -0.000041   0.370490  -0.030415
    14  H   -0.005829  -0.000041  -0.000245   0.005180   0.372040  -0.031758
              13         14
     1  C   -0.003767  -0.005794
     2  H   -0.000245   0.005156
     3  H   -0.000045  -0.000042
     4  H    0.004067  -0.000245
     5  C   -0.029948  -0.034831
     6  H   -0.003404   0.005955
     7  C    0.005284  -0.005829
     8  H   -0.000190  -0.000041
     9  H   -0.000046  -0.000245
    10  H   -0.000041   0.005180
    11  C    0.370490   0.372040
    12  H   -0.030415  -0.031758
    13  H    0.581381  -0.031752
    14  H   -0.031752   0.585049
 Mulliken charges:
               1
     1  C   -0.434817
     2  H    0.137156
     3  H    0.138647
     4  H    0.138647
     5  C   -0.061719
     6  H    0.122856
     7  C   -0.434839
     8  H    0.138639
     9  H    0.138655
    10  H    0.137163
    11  C   -0.434829
    12  H    0.138651
    13  H    0.138631
    14  H    0.137157
 Sum of Mulliken charges =   0.00000
 Mulliken charges with hydrogens summed into heavy atoms:
               1
     1  C   -0.020366
     5  C    0.061137
     7  C   -0.020382
    11  C   -0.020389
 Electronic spatial extent (au):  <R**2>=            354.6900
 Charge=              0.0000 electrons
 Dipole moment (field-independent basis, Debye):
    X=             -0.0001    Y=              0.0000    Z=             -0.0849  Tot=              0.0849
 Quadrupole moment (field-independent basis, Debye-Ang):
   XX=            -28.4712   YY=            -28.4718   ZZ=            -27.9648
   XY=             -0.0003   XZ=             -0.0002   YZ=              0.0004
 Traceless Quadrupole moment (field-independent basis, Debye-Ang):
   XX=             -0.1686   YY=             -0.1692   ZZ=              0.3378
   XY=             -0.0003   XZ=             -0.0002   YZ=              0.0004
 Octapole moment (field-independent basis, Debye-Ang**2):
  XXX=              0.5567  YYY=             -1.5924  ZZZ=              0.8399  XYY=             -0.5562
  XXY=              1.5902  XXZ=             -1.1040  XZZ=             -0.0006  YZZ=             -0.0010
  YYZ=             -1.1040  XYZ=              0.0004
 Hexadecapole moment (field-independent basis, Debye-Ang**3):
 XXXX=           -212.0497 YYYY=           -212.0223 ZZZZ=            -63.3087 XXXY=              0.0009
 XXXZ=             -0.2369 YYYX=             -0.0039 YYYZ=              0.7052 ZZZX=              0.0029
 ZZZY=              0.0128 XXYY=            -70.6704 XXZZ=            -46.8111 YYZZ=            -46.7942
 XXYZ=             -0.6803 YYXZ=              0.2403 ZZXY=              0.0010
 N-N= 1.342243325162D+02 E-N=-6.338509863086D+02  KE= 1.568198273198D+02
 No NMR shielding tensors so no spin-rotation constants.
 Leave Link  601 at Wed Mar 30 17:49:19 2016, MaxMem=  2147483648 cpu:         1.8
 (Enter /vol-th/home/you/softwares/gaussian/g09D01/g09/l701.exe)
 Compute integral first derivatives.
 ... and contract with generalized density number  0.
 R6Disp: Adding Grimme-D3(BJ) dispersion energy 1st derivatives to the gradient.
 Leave Link  701 at Wed Mar 30 17:49:19 2016, MaxMem=  2147483648 cpu:         1.6
 (Enter /vol-th/home/you/softwares/gaussian/g09D01/g09/l702.exe)
 L702 exits ... SP integral derivatives will be done elsewhere.
 Leave Link  702 at Wed Mar 30 17:49:19 2016, MaxMem=  2147483648 cpu:         0.3
 (Enter /vol-th/home/you/softwares/gaussian/g09D01/g09/l703.exe)
 Compute integral first derivatives, UseDBF=F ICtDFT=           0.
 Integral derivatives from FoFJK, PRISM(SPDF).
 Calling FoFJK, ICntrl=      2127 FMM=F ISym2X=0 I1Cent= 0 IOpClX= 0 NMat=1 NMatS=1 NMatT=0.
 FoFJK:  IHMeth= 1 ICntrl=    2127 DoSepK=F KAlg= 0 I1Cent=   0 FoldK=F
 IRaf=         0 NMat=   1 IRICut=       1 DoRegI=T DoRafI=F ISym2E= 0.
 FoFCou: FMM=F IPFlag=           0 FMFlag=      100000 FMFlg1=         800
         NFxFlg=           0 DoJE=F BraDBF=F KetDBF=F FulRan=T
         wScrn=  0.000000 ICntrl=    2127 IOpCl=  0 I1Cent=           0 NGrid=           0
         NMat0=    1 NMatS0=      1 NMatT0=    0 NMatD0=    1 NMtDS0=    0 NMtDT0=    0
 Symmetry not used in FoFCou.
 Leave Link  703 at Wed Mar 30 17:49:20 2016, MaxMem=  2147483648 cpu:        10.8
 (Enter /vol-th/home/you/softwares/gaussian/g09D01/g09/l716.exe)
 Dipole        =-2.00171608D-05-8.43844399D-06-3.34194987D-02
 ***** Axes restored to original set *****
 -------------------------------------------------------------------
 Center     Atomic                   Forces (Hartrees/Bohr)
 Number     Number              X              Y              Z
 -------------------------------------------------------------------
      1        6           0.000013606    0.000011968   -0.000020167
      2        1           0.000000361   -0.000030002    0.000014218
      3        1          -0.000004720    0.000043940    0.000002130
      4        1           0.000008579    0.000013194   -0.000000402
      5        6          -0.000009096   -0.000038538    0.000028002
      6        1          -0.000001118    0.000003704    0.000001662
      7        6           0.000002052   -0.000017376    0.000008019
      8        1          -0.000013614   -0.000011426    0.000001059
      9        1          -0.000004377    0.000005095   -0.000002336
     10        1          -0.000004154    0.000009591   -0.000011765
     11        6          -0.000026541    0.000001457   -0.000004910
     12        1           0.000035045    0.000012278   -0.000006271
     13        1           0.000015199   -0.000003064   -0.000008590
     14        1          -0.000011222   -0.000000820   -0.000000648
 -------------------------------------------------------------------
 Cartesian Forces:  Max     0.000043940 RMS     0.000015421
 Leave Link  716 at Wed Mar 30 17:49:20 2016, MaxMem=  2147483648 cpu:         0.3
 (Enter /vol-th/home/you/softwares/gaussian/g09D01/g09/l103.exe)

 GradGradGradGradGradGradGradGradGradGradGradGradGradGradGradGradGradGrad
 Berny optimization.
 FormGI is forming the generalized inverse of G from B-inverse, IUseBI=4.
 Internal  Forces:  Max     0.000056957 RMS     0.000015959
 Search for a local minimum.
 Step number   1 out of a maximum of   74
 All quantities printed in internal units (Hartrees-Bohrs-Radians)
 RMS Force = .15959D-04 SwitMx=.10000D-02 MixMth= 2
 Mixed Optimization -- En-DIIS/RFO-DIIS
 Second derivative matrix not updated -- first step.
 ITU=  0
     Eigenvalues ---    0.00323   0.00323   0.00324   0.03508   0.04786
     Eigenvalues ---    0.04787   0.05423   0.05424   0.05427   0.05517
     Eigenvalues ---    0.05517   0.05517   0.16000   0.16000   0.16000
     Eigenvalues ---    0.16000   0.16000   0.16000   0.16000   0.16000
     Eigenvalues ---    0.16000   0.16789   0.16790   0.29104   0.29105
     Eigenvalues ---    0.29111   0.33660   0.33917   0.33920   0.33921
     Eigenvalues ---    0.34084   0.34085   0.34087   0.34087   0.34088
     Eigenvalues ---    0.34092
 RFO step:  Lambda=-2.16383443D-07 EMin= 3.23032419D-03
 Linear search not attempted -- first point.
 Iteration  1 RMS(Cart)=  0.00080055 RMS(Int)=  0.00000046
 Iteration  2 RMS(Cart)=  0.00000047 RMS(Int)=  0.00000001
 ITry= 1 IFail=0 DXMaxC= 2.30D-03 DCOld= 1.00D+10 DXMaxT= 3.00D-01 DXLimC= 3.00D+00 Rises=F
 Variable       Old X    -DE/DX   Delta X   Delta X   Delta X     New X
                                 (Linear)    (Quad)   (Total)
    R1        2.07471  -0.00002   0.00000  -0.00005  -0.00005   2.07466
    R2        2.07176   0.00002   0.00000   0.00007   0.00007   2.07182
    R3        2.07181   0.00000   0.00000  -0.00001  -0.00001   2.07181
    R4        2.89771   0.00004   0.00000   0.00012   0.00012   2.89783
    R5        2.07907   0.00000   0.00000   0.00000   0.00000   2.07908
    R6        2.89786  -0.00001   0.00000  -0.00004  -0.00004   2.89783
    R7        2.89784  -0.00001   0.00000  -0.00003  -0.00003   2.89781
    R8        2.07186  -0.00002   0.00000  -0.00005  -0.00005   2.07181
    R9        2.07184  -0.00001   0.00000  -0.00002  -0.00002   2.07182
   R10        2.07464   0.00001   0.00000   0.00003   0.00003   2.07467
   R11        2.07184  -0.00001   0.00000  -0.00003  -0.00003   2.07181
   R12        2.07188  -0.00002   0.00000  -0.00005  -0.00005   2.07183
   R13        2.07466   0.00000   0.00000   0.00000   0.00000   2.07466
    A1        1.87926   0.00000   0.00000   0.00005   0.00005   1.87931
    A2        1.87932   0.00001   0.00000  -0.00001  -0.00001   1.87931
    A3        1.93190  -0.00005   0.00000  -0.00035  -0.00035   1.93155
    A4        1.88409  -0.00003   0.00000  -0.00016  -0.00016   1.88393
    A5        1.94317   0.00006   0.00000   0.00040   0.00040   1.94357
    A6        1.94342   0.00001   0.00000   0.00007   0.00007   1.94349
    A7        1.88336   0.00000   0.00000   0.00018   0.00018   1.88354
    A8        1.93704   0.00000   0.00000  -0.00006  -0.00006   1.93698
    A9        1.93696   0.00001   0.00000  -0.00002  -0.00002   1.93695
   A10        1.88342   0.00001   0.00000   0.00009   0.00009   1.88351
   A11        1.88347   0.00000   0.00000   0.00008   0.00008   1.88355
   A12        1.93713  -0.00002   0.00000  -0.00025  -0.00025   1.93688
   A13        1.94354   0.00000   0.00000  -0.00001  -0.00001   1.94353
   A14        1.94357   0.00000   0.00000   0.00000   0.00000   1.94358
   A15        1.93159  -0.00001   0.00000  -0.00007  -0.00007   1.93151
   A16        1.88389   0.00000   0.00000   0.00001   0.00001   1.88390
   A17        1.87930   0.00001   0.00000   0.00002   0.00002   1.87932
   A18        1.87926   0.00001   0.00000   0.00006   0.00006   1.87931
   A19        1.94392  -0.00005   0.00000  -0.00031  -0.00031   1.94361
   A20        1.94345   0.00001   0.00000   0.00008   0.00008   1.94353
   A21        1.93141   0.00002   0.00000   0.00010   0.00010   1.93151
   A22        1.88369   0.00002   0.00000   0.00017   0.00017   1.88386
   A23        1.87934   0.00001   0.00000  -0.00003  -0.00003   1.87931
   A24        1.87934  -0.00001   0.00000  -0.00001  -0.00001   1.87933
    D1       -3.14154   0.00000   0.00000  -0.00007  -0.00007   3.14158
    D2        1.08141  -0.00001   0.00000  -0.00025  -0.00025   1.08117
    D3       -1.08130   0.00002   0.00000   0.00013   0.00013  -1.08116
    D4        1.05196   0.00000   0.00000  -0.00015  -0.00015   1.05181
    D5       -1.00827  -0.00001   0.00000  -0.00033  -0.00033  -1.00861
    D6        3.11220   0.00001   0.00000   0.00005   0.00005   3.11225
    D7       -1.05161  -0.00001   0.00000  -0.00027  -0.00027  -1.05189
    D8       -3.11184  -0.00002   0.00000  -0.00045  -0.00045  -3.11230
    D9        1.00863   0.00000   0.00000  -0.00007  -0.00007   1.00856
   D10        1.00750   0.00001   0.00000   0.00124   0.00124   1.00874
   D11        3.11118   0.00001   0.00000   0.00124   0.00124   3.11242
   D12       -1.08227   0.00001   0.00000   0.00127   0.00127  -1.08100
   D13       -1.05269   0.00000   0.00000   0.00100   0.00100  -1.05169
   D14        1.05098   0.00000   0.00000   0.00101   0.00101   1.05199
   D15        3.14072   0.00000   0.00000   0.00103   0.00103  -3.14143
   D16       -3.11307   0.00000   0.00000   0.00099   0.00099  -3.11208
   D17       -1.00939   0.00000   0.00000   0.00100   0.00100  -1.00840
   D18        1.08035   0.00001   0.00000   0.00102   0.00102   1.08137
   D19       -3.11031  -0.00001   0.00000  -0.00180  -0.00180  -3.11210
   D20       -1.00671  -0.00001   0.00000  -0.00174  -0.00174  -1.00845
   D21        1.08293  -0.00001   0.00000  -0.00163  -0.00163   1.08130
   D22       -1.05013  -0.00001   0.00000  -0.00154  -0.00154  -1.05167
   D23        1.05347   0.00000   0.00000  -0.00148  -0.00148   1.05199
   D24       -3.14008   0.00000   0.00000  -0.00137  -0.00137  -3.14144
   D25        1.01022  -0.00001   0.00000  -0.00153  -0.00153   1.00869
   D26        3.11382   0.00000   0.00000  -0.00147  -0.00147   3.11235
   D27       -1.07973   0.00000   0.00000  -0.00136  -0.00136  -1.08109
         Item               Value     Threshold  Converged?
 Maximum Force            0.000057     0.000015     NO 
 RMS     Force            0.000016     0.000010     NO 
 Maximum Displacement     0.002296     0.000060     NO 
 RMS     Displacement     0.000801     0.000040     NO 
 Predicted change in Energy=-1.081904D-07
 Lowest energy point so far.  Saving SCF results.
 GradGradGradGradGradGradGradGradGradGradGradGradGradGradGradGradGradGrad

 Leave Link  103 at Wed Mar 30 17:49:20 2016, MaxMem=  2147483648 cpu:         0.3
 (Enter /vol-th/home/you/softwares/gaussian/g09D01/g09/l202.exe)
                          Input orientation:                          
 ---------------------------------------------------------------------
 Center     Atomic      Atomic             Coordinates (Angstroms)
 Number     Number       Type             X           Y           Z
 ---------------------------------------------------------------------
      1          6           0       -0.165674    1.449692   -0.096074
      2          1           0       -0.171669    1.502024   -1.192675
      3          1           0        0.654387    2.082643    0.262931
      4          1           0       -1.107421    1.881206    0.262948
      5          6           0        0.000003    0.000050    0.375744
      6          1           0        0.000033    0.000064    1.475945
      7          6           0        1.338239   -0.581375   -0.096043
      8          1           0        2.182881    0.018290    0.263093
      9          1           0        1.476240   -1.608093    0.262856
     10          1           0        1.386595   -0.602228   -1.192649
     11          6           0       -1.172571   -0.868272   -0.096035
     12          1           0       -1.075580   -1.899588    0.263099
     13          1           0       -2.130748   -0.474454    0.262877
     14          1           0       -1.214804   -0.899729   -1.192635
 ---------------------------------------------------------------------
                    Distance matrix (angstroms):
                    1          2          3          4          5
     1  C    0.000000
     2  H    1.097865   0.000000
     3  H    1.096362   1.771518   0.000000
     4  H    1.096353   1.771510   1.773285   0.000000
     5  C    1.533467   2.178379   2.185895   2.185831   0.000000
     6  H    2.144790   3.067066   2.497342   2.497301   1.100201
     7  C    2.527249   2.796958   2.773717   3.489188   1.533464
     8  H    2.773738   3.140801   2.568627   3.781077   2.185859
     9  H    3.489235   3.808806   3.781134   4.341718   2.185897
    10  H    2.796853   2.618408   3.140601   3.808716   2.178356
    11  C    2.527212   2.796914   3.489202   2.773580   1.533457
    12  H    3.489213   3.808844   4.341768   3.780928   2.185908
    13  H    2.773572   3.140555   3.780968   2.568333   2.185862
    14  H    2.796945   2.618501   3.808817   3.140677   2.178342
                    6          7          8          9         10
     6  H    0.000000
     7  C    2.144764   0.000000
     8  H    2.497233   1.096356   0.000000
     9  H    2.497387   1.096359   1.773264   0.000000
    10  H    3.067035   1.097870   1.771525   1.771524   0.000000
    11  C    2.144791   2.527148   3.489129   2.773506   2.796904
    12  H    2.497321   2.773660   3.780982   2.568415   3.140804
    13  H    2.497384   3.489144   4.341681   3.780939   3.808751
    14  H    3.067047   2.796765   3.808697   3.140375   2.618355
                   11         12         13         14
    11  C    0.000000
    12  H    1.096356   0.000000
    13  H    1.096364   1.773242   0.000000
    14  H    1.097864   1.771515   1.771532   0.000000
 Stoichiometry    C4H10
 Framework group  C1[X(C4H10)]
 Deg. of freedom    36
 Full point group                 C1      NOp   1
 RotChk:  IX=3 Diff= 1.69D+00
 Largest Abelian subgroup         C1      NOp   1
 Largest concise Abelian subgroup C1      NOp   1
                         Standard orientation:                         
 ---------------------------------------------------------------------
 Center     Atomic      Atomic             Coordinates (Angstroms)
 Number     Number       Type             X           Y           Z
 ---------------------------------------------------------------------
      1          6           0        1.435832    0.259575    0.096114
      2          1           0        1.487669    0.268931    1.192714
      3          1           0        1.805302    1.227365   -0.262892
      4          1           0        2.120677   -0.517651   -0.262908
      5          6           0        0.000027    0.000015   -0.375705
      6          1           0        0.000031    0.000046   -1.475905
      7          6           0       -0.942735    1.113626    0.096082
      8          1           0       -0.612227    2.095351   -0.263053
      9          1           0       -1.965613    0.949572   -0.262817
     10          1           0       -0.976651    1.153911    1.192689
     11          6           0       -0.493115   -1.373203    0.096074
     12          1           0       -1.508565   -1.577850   -0.263060
     13          1           0        0.160376   -2.177035   -0.262837
     14          1           0       -0.511051   -1.422715    1.192675
 ---------------------------------------------------------------------
 Rotational constants (GHZ):      7.7610999      7.7605654      4.4975931
 Leave Link  202 at Wed Mar 30 17:49:20 2016, MaxMem=  2147483648 cpu:         0.0
 (Enter /vol-th/home/you/softwares/gaussian/g09D01/g09/l301.exe)
 Standard basis: 6-31G(d) (6D, 7F)
 Ernie: Thresh=  0.10000D-02 Tol=  0.10000D-05 Strict=F.
 There are    80 symmetry adapted cartesian basis functions of A   symmetry.
 There are    80 symmetry adapted basis functions of A   symmetry.
    80 basis functions,   152 primitive gaussians,    80 cartesian basis functions
    17 alpha electrons       17 beta electrons
       nuclear repulsion energy       134.2411068185 Hartrees.
 IExCor=  402 DFT=T Ex+Corr=B3LYP ExCW=0 ScaHFX=  0.200000
 ScaDFX=  0.800000  0.720000  1.000000  0.810000 ScalE2=  1.000000  1.000000
 IRadAn=      5 IRanWt=     -1 IRanGd=            0 ICorTp=0 IEmpDi=141
 NAtoms=   14 NActive=   14 NUniq=   14 SFac= 1.00D+00 NAtFMM=   60 NAOKFM=F Big=F
 Integral buffers will be    131072 words long.
 Raffenetti 2 integral format.
 Two-electron integral symmetry is turned on.
 R6Disp:  Grimme-D3(BJ) Dispersion energy=       -0.0154703658 Hartrees.
 Nuclear repulsion after empirical dispersion term =      134.2256364527 Hartrees.
 Leave Link  301 at Wed Mar 30 17:49:20 2016, MaxMem=  2147483648 cpu:         0.6
 (Enter /vol-th/home/you/softwares/gaussian/g09D01/g09/l302.exe)
 NPDir=0 NMtPBC=     1 NCelOv=     1 NCel=       1 NClECP=     1 NCelD=      1
         NCelK=      1 NCelE2=     1 NClLst=     1 CellRange=     0.0.
 One-electron integrals computed using PRISM.
 NBasis=    80 RedAO= T EigKep=  4.94D-03  NBF=    80
 NBsUse=    80 1.00D-06 EigRej= -1.00D+00 NBFU=    80
 Precomputing XC quadrature grid using
 IXCGrd= 4 IRadAn=           5 IRanWt=          -1 IRanGd=           0 AccXCQ= 0.00D+00.
 Generated NRdTot=       0 NPtTot=           0 NUsed=           0 NTot=          32
 NSgBfM=    80    80    80    80    80 MxSgAt=    14 MxSgA2=    14.
 Leave Link  302 at Wed Mar 30 17:49:20 2016, MaxMem=  2147483648 cpu:         2.3
 (Enter /vol-th/home/you/softwares/gaussian/g09D01/g09/l303.exe)
 DipDrv:  MaxL=1.
 Leave Link  303 at Wed Mar 30 17:49:20 2016, MaxMem=  2147483648 cpu:         0.3
 (Enter /vol-th/home/you/softwares/gaussian/g09D01/g09/l401.exe)
 Initial guess from the checkpoint file:  "/vol-th/home/you/scratch/Gau-13023.chk"
 B after Tr=     0.000000    0.000000    0.000000
         Rot=    0.802243   -0.000025    0.000029    0.596998 Ang= -73.31 deg.
 Guess basis will be translated and rotated to current coordinates.
 JPrj=2 DoOrth=T DoCkMO=T.
 Leave Link  401 at Wed Mar 30 17:49:20 2016, MaxMem=  2147483648 cpu:         1.2
 (Enter /vol-th/home/you/softwares/gaussian/g09D01/g09/l502.exe)
 Closed shell SCF:
 Using DIIS extrapolation, IDIIS=  1040.
 Integral symmetry usage will be decided dynamically.
 Keep R1 ints in memory in canonical form, NReq=6194836.
 IVT=       39334 IEndB=       39334 NGot=  2147483648 MDV=  2142193895
 LenX=  2142193895 LenY=  2142187054
 Requested convergence on RMS density matrix=1.00D-08 within 128 cycles.
 Requested convergence on MAX density matrix=1.00D-06.
 Requested convergence on             energy=1.00D-06.
 No special actions if energy rises.
 FoFCou: FMM=F IPFlag=           0 FMFlag=           0 FMFlg1=           0
         NFxFlg=           0 DoJE=F BraDBF=F KetDBF=F FulRan=T
         wScrn=  0.000000 ICntrl=     600 IOpCl=  0 I1Cent=           0 NGrid=           0
         NMat0=    1 NMatS0=   3240 NMatT0=    0 NMatD0=    1 NMtDS0=    0 NMtDT0=    0
 Symmetry not used in FoFCou.

 Cycle   1  Pass 1  IDiag  1:
 E= -158.474264749840    
 DIIS: error= 6.15D-05 at cycle   1 NSaved=   1.
 NSaved= 1 IEnMin= 1 EnMin= -158.474264749840     IErMin= 1 ErrMin= 6.15D-05
 ErrMax= 6.15D-05  0.00D+00 EMaxC= 1.00D-01 BMatC= 3.32D-07 BMatP= 3.32D-07
 IDIUse=1 WtCom= 1.00D+00 WtEn= 0.00D+00
 Coeff-Com:  0.100D+01
 Coeff:      0.100D+01
 Gap=     1.915 Goal=   None    Shift=    0.000
 RMSDP=9.93D-06 MaxDP=1.43D-04              OVMax= 2.49D-04

 Cycle   2  Pass 1  IDiag  1:
 E= -158.474265459002     Delta-E=       -0.000000709162 Rises=F Damp=F
 DIIS: error= 7.84D-06 at cycle   2 NSaved=   2.
 NSaved= 2 IEnMin= 2 EnMin= -158.474265459002     IErMin= 2 ErrMin= 7.84D-06
 ErrMax= 7.84D-06  0.00D+00 EMaxC= 1.00D-01 BMatC= 3.44D-09 BMatP= 3.32D-07
 IDIUse=1 WtCom= 1.00D+00 WtEn= 0.00D+00
 Coeff-Com: -0.903D-01 0.109D+01
 Coeff:     -0.903D-01 0.109D+01
 Gap=     0.404 Goal=   None    Shift=    0.000
 RMSDP=1.62D-06 MaxDP=2.04D-05 DE=-7.09D-07 OVMax= 3.55D-05

 Cycle   3  Pass 1  IDiag  1:
 E= -158.474265466617     Delta-E=       -0.000000007615 Rises=F Damp=F
 DIIS: error= 1.88D-06 at cycle   3 NSaved=   3.
 NSaved= 3 IEnMin= 3 EnMin= -158.474265466617     IErMin= 3 ErrMin= 1.88D-06
 ErrMax= 1.88D-06  0.00D+00 EMaxC= 1.00D-01 BMatC= 5.32D-10 BMatP= 3.44D-09
 IDIUse=1 WtCom= 1.00D+00 WtEn= 0.00D+00
 Coeff-Com: -0.388D-01 0.425D+00 0.614D+00
 Coeff:     -0.388D-01 0.425D+00 0.614D+00
 Gap=     0.404 Goal=   None    Shift=    0.000
 RMSDP=3.78D-07 MaxDP=5.03D-06 DE=-7.61D-09 OVMax= 6.57D-06

 Cycle   4  Pass 1  IDiag  1:
 E= -158.474265467117     Delta-E=       -0.000000000500 Rises=F Damp=F
 DIIS: error= 8.08D-07 at cycle   4 NSaved=   4.
 NSaved= 4 IEnMin= 4 EnMin= -158.474265467117     IErMin= 4 ErrMin= 8.08D-07
 ErrMax= 8.08D-07  0.00D+00 EMaxC= 1.00D-01 BMatC= 5.27D-11 BMatP= 5.32D-10
 IDIUse=1 WtCom= 1.00D+00 WtEn= 0.00D+00
 Coeff-Com: -0.872D-02 0.866D-01 0.265D+00 0.657D+00
 Coeff:     -0.872D-02 0.866D-01 0.265D+00 0.657D+00
 Gap=     0.404 Goal=   None    Shift=    0.000
 RMSDP=9.36D-08 MaxDP=1.71D-06 DE=-5.00D-10 OVMax= 1.68D-06

 Cycle   5  Pass 1  IDiag  1:
 E= -158.474265467169     Delta-E=       -0.000000000052 Rises=F Damp=F
 DIIS: error= 1.58D-07 at cycle   5 NSaved=   5.
 NSaved= 5 IEnMin= 5 EnMin= -158.474265467169     IErMin= 5 ErrMin= 1.58D-07
 ErrMax= 1.58D-07  0.00D+00 EMaxC= 1.00D-01 BMatC= 2.17D-12 BMatP= 5.27D-11
 IDIUse=1 WtCom= 1.00D+00 WtEn= 0.00D+00
 Coeff-Com:  0.522D-03-0.870D-02 0.348D-01 0.216D+00 0.758D+00
 Coeff:      0.522D-03-0.870D-02 0.348D-01 0.216D+00 0.758D+00
 Gap=     0.404 Goal=   None    Shift=    0.000
 RMSDP=2.37D-08 MaxDP=2.82D-07 DE=-5.21D-11 OVMax= 3.75D-07

 Cycle   6  Pass 1  IDiag  1:
 E= -158.474265467170     Delta-E=       -0.000000000001 Rises=F Damp=F
 DIIS: error= 2.14D-08 at cycle   6 NSaved=   6.
 NSaved= 6 IEnMin= 6 EnMin= -158.474265467170     IErMin= 6 ErrMin= 2.14D-08
 ErrMax= 2.14D-08  0.00D+00 EMaxC= 1.00D-01 BMatC= 4.86D-14 BMatP= 2.17D-12
 IDIUse=1 WtCom= 1.00D+00 WtEn= 0.00D+00
 Coeff-Com:  0.331D-03-0.457D-02 0.729D-02 0.629D-01 0.264D+00 0.670D+00
 Coeff:      0.331D-03-0.457D-02 0.729D-02 0.629D-01 0.264D+00 0.670D+00
 Gap=     0.404 Goal=   None    Shift=    0.000
 RMSDP=3.94D-09 MaxDP=5.16D-08 DE=-1.31D-12 OVMax= 6.55D-08

 SCF Done:  E(RB3LYP) =  -158.474265467     A.U. after    6 cycles
            NFock=  6  Conv=0.39D-08     -V/T= 2.0105
 KE= 1.568198735310D+02 PE=-6.338536372655D+02 EE= 1.843338618146D+02
 Leave Link  502 at Wed Mar 30 17:49:23 2016, MaxMem=  2147483648 cpu:        24.4
 (Enter /vol-th/home/you/softwares/gaussian/g09D01/g09/l701.exe)
 Compute integral first derivatives.
 ... and contract with generalized density number  0.
 R6Disp: Adding Grimme-D3(BJ) dispersion energy 1st derivatives to the gradient.
 Leave Link  701 at Wed Mar 30 17:49:23 2016, MaxMem=  2147483648 cpu:         1.6
 (Enter /vol-th/home/you/softwares/gaussian/g09D01/g09/l702.exe)
 L702 exits ... SP integral derivatives will be done elsewhere.
 Leave Link  702 at Wed Mar 30 17:49:23 2016, MaxMem=  2147483648 cpu:         0.3
 (Enter /vol-th/home/you/softwares/gaussian/g09D01/g09/l703.exe)
 Compute integral first derivatives, UseDBF=F ICtDFT=           0.
 Integral derivatives from FoFJK, PRISM(SPDF).
 Calling FoFJK, ICntrl=      2127 FMM=F ISym2X=0 I1Cent= 0 IOpClX= 0 NMat=1 NMatS=1 NMatT=0.
 FoFJK:  IHMeth= 1 ICntrl=    2127 DoSepK=F KAlg= 0 I1Cent=   0 FoldK=F
 IRaf=         0 NMat=   1 IRICut=       1 DoRegI=T DoRafI=F ISym2E= 0.
 FoFCou: FMM=F IPFlag=           0 FMFlag=      100000 FMFlg1=         800
         NFxFlg=           0 DoJE=F BraDBF=F KetDBF=F FulRan=T
         wScrn=  0.000000 ICntrl=    2127 IOpCl=  0 I1Cent=           0 NGrid=           0
         NMat0=    1 NMatS0=      1 NMatT0=    0 NMatD0=    1 NMtDS0=    0 NMtDT0=    0
 Symmetry not used in FoFCou.
 Leave Link  703 at Wed Mar 30 17:49:24 2016, MaxMem=  2147483648 cpu:        10.8
 (Enter /vol-th/home/you/softwares/gaussian/g09D01/g09/l716.exe)
 Dipole        = 1.52163767D-05-4.11541287D-06-3.33942275D-02
 ***** Axes restored to original set *****
 -------------------------------------------------------------------
 Center     Atomic                   Forces (Hartrees/Bohr)
 Number     Number              X              Y              Z
 -------------------------------------------------------------------
      1        6           0.000002509   -0.000003117    0.000002339
      2        1           0.000003317   -0.000002107   -0.000003682
      3        1          -0.000003490    0.000002563    0.000000450
      4        1          -0.000000271    0.000005506    0.000002345
      5        6           0.000003396   -0.000021657    0.000003942
      6        1          -0.000002886    0.000001756   -0.000003736
      7        6           0.000008139    0.000007213   -0.000003417
      8        1           0.000003292   -0.000001487   -0.000001429
      9        1          -0.000001690    0.000000405    0.000001262
     10        1          -0.000001710    0.000001375    0.000001958
     11        6          -0.000015390    0.000007791    0.000002282
     12        1           0.000004637   -0.000001448    0.000000617
     13        1          -0.000002108   -0.000002930   -0.000003534
     14        1           0.000002253    0.000006137    0.000000604
 -------------------------------------------------------------------
 Cartesian Forces:  Max     0.000021657 RMS     0.000005302
 Leave Link  716 at Wed Mar 30 17:49:24 2016, MaxMem=  2147483648 cpu:         0.3
 (Enter /vol-th/home/you/softwares/gaussian/g09D01/g09/l103.exe)

 GradGradGradGradGradGradGradGradGradGradGradGradGradGradGradGradGradGrad
 Berny optimization.
 Using GEDIIS/GDIIS optimizer.
 FormGI is forming the generalized inverse of G from B-inverse, IUseBI=4.
 Internal  Forces:  Max     0.000009314 RMS     0.000003538
 Search for a local minimum.
 Step number   2 out of a maximum of   74
 All quantities printed in internal units (Hartrees-Bohrs-Radians)
 RMS Force = .35384D-05 SwitMx=.10000D-02 MixMth= 2
 Mixed Optimization -- En-DIIS/RFO-DIIS
 Swapping is turned off.
 Update second derivatives using D2CorX and points    1    2
 DE=  7.71D-07 DEPred=-1.08D-07 R=-7.13D+00
 Trust test=-7.13D+00 RLast= 5.80D-03 DXMaxT set to 1.50D-01
 ITU= -1  0
     Eigenvalues ---    0.00291   0.00324   0.00338   0.03442   0.04785
     Eigenvalues ---    0.04854   0.05394   0.05424   0.05434   0.05504
     Eigenvalues ---    0.05517   0.05569   0.14740   0.16000   0.16000
     Eigenvalues ---    0.16000   0.16000   0.16000   0.16000   0.16000
     Eigenvalues ---    0.16245   0.16781   0.17704   0.29030   0.29105
     Eigenvalues ---    0.29235   0.33662   0.33918   0.33919   0.33966
     Eigenvalues ---    0.34065   0.34085   0.34086   0.34087   0.34089
     Eigenvalues ---    0.34355
 En-DIIS/RFO-DIIS IScMMF=        0 using points:     2    1
 RFO step:  Lambda= 0.00000000D+00.
 NNeg= 0 NP= 2 Switch=  2.50D-03 Rises=F DC= -7.71D-07 SmlDif=  1.00D-05
 RMS Error=  0.1197211786D-04 NUsed= 2 EDIIS=F
 DidBck=F Rises=F RFO-DIIS coefs:    1.07051   -0.07051
 Iteration  1 RMS(Cart)=  0.00015443 RMS(Int)=  0.00000002
 Iteration  2 RMS(Cart)=  0.00000002 RMS(Int)=  0.00000000
 ITry= 1 IFail=0 DXMaxC= 6.12D-04 DCOld= 1.00D+10 DXMaxT= 1.50D-01 DXLimC= 3.00D+00 Rises=F
 Variable       Old X    -DE/DX   Delta X   Delta X   Delta X     New X
                                 (Linear)    (Quad)   (Total)
    R1        2.07466   0.00000   0.00000   0.00001   0.00001   2.07468
    R2        2.07182   0.00000   0.00000  -0.00001   0.00000   2.07182
    R3        2.07181   0.00000   0.00000   0.00001   0.00001   2.07182
    R4        2.89783   0.00000   0.00001   0.00001   0.00001   2.89785
    R5        2.07908   0.00000   0.00000  -0.00001  -0.00001   2.07907
    R6        2.89783   0.00000   0.00000   0.00002   0.00002   2.89784
    R7        2.89781   0.00000   0.00000   0.00001   0.00001   2.89782
    R8        2.07181   0.00000   0.00000   0.00001   0.00000   2.07182
    R9        2.07182   0.00000   0.00000   0.00000   0.00000   2.07182
   R10        2.07467   0.00000   0.00000  -0.00001  -0.00001   2.07467
   R11        2.07181   0.00000   0.00000   0.00001   0.00001   2.07182
   R12        2.07183   0.00000   0.00000   0.00000   0.00000   2.07182
   R13        2.07466   0.00000   0.00000   0.00000   0.00000   2.07466
    A1        1.87931   0.00000   0.00000  -0.00001  -0.00001   1.87930
    A2        1.87931   0.00000   0.00000   0.00002   0.00002   1.87933
    A3        1.93155  -0.00001  -0.00002  -0.00003  -0.00005   1.93149
    A4        1.88393  -0.00001  -0.00001  -0.00003  -0.00004   1.88389
    A5        1.94357   0.00001   0.00003   0.00002   0.00004   1.94361
    A6        1.94349   0.00001   0.00000   0.00004   0.00004   1.94353
    A7        1.88354   0.00000   0.00001  -0.00001   0.00001   1.88355
    A8        1.93698  -0.00001   0.00000  -0.00006  -0.00006   1.93692
    A9        1.93695   0.00000   0.00000  -0.00004  -0.00005   1.93690
   A10        1.88351   0.00000   0.00001   0.00004   0.00004   1.88356
   A11        1.88355   0.00000   0.00001   0.00001   0.00001   1.88357
   A12        1.93688   0.00001  -0.00002   0.00006   0.00005   1.93692
   A13        1.94353   0.00001   0.00000   0.00005   0.00005   1.94357
   A14        1.94358   0.00000   0.00000  -0.00002  -0.00002   1.94355
   A15        1.93151   0.00000  -0.00001  -0.00002  -0.00003   1.93149
   A16        1.88390   0.00000   0.00000   0.00000   0.00000   1.88390
   A17        1.87932   0.00000   0.00000  -0.00001   0.00000   1.87931
   A18        1.87931   0.00000   0.00000   0.00001   0.00001   1.87933
   A19        1.94361  -0.00001  -0.00002  -0.00003  -0.00005   1.94355
   A20        1.94353   0.00001   0.00001   0.00007   0.00007   1.94361
   A21        1.93151  -0.00001   0.00001  -0.00007  -0.00006   1.93145
   A22        1.88386   0.00000   0.00001   0.00002   0.00003   1.88389
   A23        1.87931   0.00001   0.00000   0.00002   0.00002   1.87933
   A24        1.87933   0.00000   0.00000  -0.00001  -0.00001   1.87932
    D1        3.14158   0.00000   0.00000  -0.00012  -0.00013   3.14145
    D2        1.08117   0.00000  -0.00002  -0.00013  -0.00015   1.08102
    D3       -1.08116   0.00000   0.00001  -0.00014  -0.00013  -1.08129
    D4        1.05181   0.00000  -0.00001  -0.00010  -0.00011   1.05170
    D5       -1.00861   0.00000  -0.00002  -0.00011  -0.00013  -1.00874
    D6        3.11225   0.00000   0.00000  -0.00011  -0.00011   3.11214
    D7       -1.05189   0.00000  -0.00002  -0.00009  -0.00011  -1.05200
    D8       -3.11230   0.00000  -0.00003  -0.00010  -0.00013  -3.11243
    D9        1.00856   0.00000  -0.00001  -0.00011  -0.00012   1.00844
   D10        1.00874   0.00000   0.00009  -0.00014  -0.00005   1.00869
   D11        3.11242   0.00000   0.00009  -0.00012  -0.00004   3.11238
   D12       -1.08100   0.00000   0.00009  -0.00015  -0.00006  -1.08106
   D13       -1.05169   0.00000   0.00007  -0.00012  -0.00005  -1.05175
   D14        1.05199   0.00000   0.00007  -0.00011  -0.00004   1.05195
   D15       -3.14143   0.00000   0.00007  -0.00013  -0.00006  -3.14149
   D16       -3.11208   0.00000   0.00007  -0.00019  -0.00012  -3.11220
   D17       -1.00840   0.00000   0.00007  -0.00018  -0.00011  -1.00850
   D18        1.08137   0.00000   0.00007  -0.00020  -0.00013   1.08124
   D19       -3.11210   0.00000  -0.00013  -0.00026  -0.00039  -3.11249
   D20       -1.00845   0.00000  -0.00012  -0.00021  -0.00033  -1.00878
   D21        1.08130   0.00000  -0.00011  -0.00022  -0.00034   1.08097
   D22       -1.05167   0.00000  -0.00011  -0.00029  -0.00039  -1.05206
   D23        1.05199   0.00000  -0.00010  -0.00024  -0.00034   1.05165
   D24       -3.14144   0.00000  -0.00010  -0.00025  -0.00035   3.14140
   D25        1.00869   0.00000  -0.00011  -0.00020  -0.00031   1.00839
   D26        3.11235   0.00000  -0.00010  -0.00015  -0.00025   3.11209
   D27       -1.08109   0.00000  -0.00010  -0.00016  -0.00026  -1.08134
         Item               Value     Threshold  Converged?
 Maximum Force            0.000009     0.000015     YES
 RMS     Force            0.000004     0.000010     YES
 Maximum Displacement     0.000612     0.000060     NO 
 RMS     Displacement     0.000154     0.000040     NO 
 Predicted change in Energy=-4.586675D-09
 GradGradGradGradGradGradGradGradGradGradGradGradGradGradGradGradGradGrad

 Leave Link  103 at Wed Mar 30 17:49:24 2016, MaxMem=  2147483648 cpu:         0.2
 (Enter /vol-th/home/you/softwares/gaussian/g09D01/g09/l202.exe)
                          Input orientation:                          
 ---------------------------------------------------------------------
 Center     Atomic      Atomic             Coordinates (Angstroms)
 Number     Number       Type             X           Y           Z
 ---------------------------------------------------------------------
      1          6           0       -0.165649    1.449656   -0.096097
      2          1           0       -0.171479    1.501899   -1.192709
      3          1           0        0.654335    2.082670    0.262970
      4          1           0       -1.107444    1.881208    0.262769
      5          6           0       -0.000004    0.000025    0.375789
      6          1           0       -0.000001    0.000077    1.475983
      7          6           0        1.338248   -0.581371   -0.096014
      8          1           0        2.182909    0.018325    0.263029
      9          1           0        1.476280   -1.608063    0.262943
     10          1           0        1.386532   -0.602283   -1.192620
     11          6           0       -1.172614   -0.868245   -0.096009
     12          1           0       -1.075439   -1.899642    0.262850
     13          1           0       -2.130791   -0.474619    0.263109
     14          1           0       -1.214970   -0.899405   -1.192611
 ---------------------------------------------------------------------
                    Distance matrix (angstroms):
                    1          2          3          4          5
     1  C    0.000000
     2  H    1.097871   0.000000
     3  H    1.096361   1.771515   0.000000
     4  H    1.096358   1.771531   1.773260   0.000000
     5  C    1.533475   2.178351   2.185932   2.185874   0.000000
     6  H    2.144798   3.067049   2.497349   2.497393   1.100194
     7  C    2.527207   2.796789   2.773756   3.489187   1.533473
     8  H    2.773699   3.140590   2.568669   3.781105   2.185901
     9  H    3.489196   3.808661   3.781152   4.341733   2.185886
    10  H    2.796799   2.618202   3.140674   3.808648   2.178340
    11  C    2.527182   2.796891   3.489199   2.773528   1.533460
    12  H    3.489178   3.808711   4.341766   3.780985   2.185875
    13  H    2.773743   3.140849   3.781092   2.568493   2.185918
    14  H    2.796696   2.618231   3.808647   3.140302   2.178301
                    6          7          8          9         10
     6  H    0.000000
     7  C    2.144800   0.000000
     8  H    2.497336   1.096358   0.000000
     9  H    2.497396   1.096358   1.773264   0.000000
    10  H    3.067044   1.097868   1.771521   1.771528   0.000000
    11  C    2.144800   2.527197   3.489191   2.773594   2.796877
    12  H    2.497437   2.773537   3.780930   2.568324   3.140515
    13  H    2.497332   3.489211   4.341774   3.780960   3.808807
    14  H    3.067021   2.796890   3.808767   3.140647   2.618415
                   11         12         13         14
    11  C    0.000000
    12  H    1.096359   0.000000
    13  H    1.096362   1.773262   0.000000
    14  H    1.097862   1.771528   1.771523   0.000000
 Stoichiometry    C4H10
 Framework group  C1[X(C4H10)]
 Deg. of freedom    36
 Full point group                 C1      NOp   1
 RotChk:  IX=3 Diff= 8.49D-01
 Largest Abelian subgroup         C1      NOp   1
 Largest concise Abelian subgroup C1      NOp   1
                         Standard orientation:                         
 ---------------------------------------------------------------------
 Center     Atomic      Atomic             Coordinates (Angstroms)
 Number     Number       Type             X           Y           Z
 ---------------------------------------------------------------------
      1          6           0        1.028720    1.034712    0.096148
      2          1           0        1.065684    1.072087    1.192759
      3          1           0        0.777809    2.039760   -0.262920
      4          1           0        2.035221    0.789414   -0.262718
      5          6           0        0.000005    0.000007   -0.375738
      6          1           0        0.000034    0.000050   -1.475933
      7          6           0       -1.410464    0.373531    0.096065
      8          1           0       -1.701394    1.367738   -0.262979
      9          1           0       -2.155299   -0.346448   -0.262892
     10          1           0       -1.461314    0.387059    1.192671
     11          6           0        0.381737   -1.408249    0.096060
     12          1           0       -0.333959   -2.157251   -0.262799
     13          1           0        1.377578   -1.693460   -0.263058
     14          1           0        0.395651   -1.458958    1.192662
 ---------------------------------------------------------------------
 Rotational constants (GHZ):      7.7609057      7.7607660      4.4976203
 Leave Link  202 at Wed Mar 30 17:49:24 2016, MaxMem=  2147483648 cpu:         0.0
 (Enter /vol-th/home/you/softwares/gaussian/g09D01/g09/l301.exe)
 Standard basis: 6-31G(d) (6D, 7F)
 Ernie: Thresh=  0.10000D-02 Tol=  0.10000D-05 Strict=F.
 There are    80 symmetry adapted cartesian basis functions of A   symmetry.
 There are    80 symmetry adapted basis functions of A   symmetry.
    80 basis functions,   152 primitive gaussians,    80 cartesian basis functions
    17 alpha electrons       17 beta electrons
       nuclear repulsion energy       134.2410712953 Hartrees.
 IExCor=  402 DFT=T Ex+Corr=B3LYP ExCW=0 ScaHFX=  0.200000
 ScaDFX=  0.800000  0.720000  1.000000  0.810000 ScalE2=  1.000000  1.000000
 IRadAn=      5 IRanWt=     -1 IRanGd=            0 ICorTp=0 IEmpDi=141
 NAtoms=   14 NActive=   14 NUniq=   14 SFac= 1.00D+00 NAtFMM=   60 NAOKFM=F Big=F
 Integral buffers will be    131072 words long.
 Raffenetti 2 integral format.
 Two-electron integral symmetry is turned on.
 R6Disp:  Grimme-D3(BJ) Dispersion energy=       -0.0154704279 Hartrees.
 Nuclear repulsion after empirical dispersion term =      134.2256008674 Hartrees.
 Leave Link  301 at Wed Mar 30 17:49:24 2016, MaxMem=  2147483648 cpu:         0.6
 (Enter /vol-th/home/you/softwares/gaussian/g09D01/g09/l302.exe)
 NPDir=0 NMtPBC=     1 NCelOv=     1 NCel=       1 NClECP=     1 NCelD=      1
         NCelK=      1 NCelE2=     1 NClLst=     1 CellRange=     0.0.
 One-electron integrals computed using PRISM.
 NBasis=    80 RedAO= T EigKep=  4.94D-03  NBF=    80
 NBsUse=    80 1.00D-06 EigRej= -1.00D+00 NBFU=    80
 Precomputing XC quadrature grid using
 IXCGrd= 4 IRadAn=           5 IRanWt=          -1 IRanGd=           0 AccXCQ= 0.00D+00.
 Generated NRdTot=       0 NPtTot=           0 NUsed=           0 NTot=          32
 NSgBfM=    80    80    80    80    80 MxSgAt=    14 MxSgA2=    14.
 Leave Link  302 at Wed Mar 30 17:49:24 2016, MaxMem=  2147483648 cpu:         2.3
 (Enter /vol-th/home/you/softwares/gaussian/g09D01/g09/l303.exe)
 DipDrv:  MaxL=1.
 Leave Link  303 at Wed Mar 30 17:49:24 2016, MaxMem=  2147483648 cpu:         0.3
 (Enter /vol-th/home/you/softwares/gaussian/g09D01/g09/l401.exe)
 Initial guess from the checkpoint file:  "/vol-th/home/you/scratch/Gau-13023.chk"
 B after Tr=     0.000000    0.000000    0.000000
         Rot=    0.953931   -0.000001    0.000003   -0.300026 Ang= -34.92 deg.
 Guess basis will be translated and rotated to current coordinates.
 JPrj=2 DoOrth=T DoCkMO=T.
 Leave Link  401 at Wed Mar 30 17:49:24 2016, MaxMem=  2147483648 cpu:         1.2
 (Enter /vol-th/home/you/softwares/gaussian/g09D01/g09/l502.exe)
 Closed shell SCF:
 Using DIIS extrapolation, IDIIS=  1040.
 Integral symmetry usage will be decided dynamically.
 Keep R1 ints in memory in canonical form, NReq=6194836.
 IVT=       39334 IEndB=       39334 NGot=  2147483648 MDV=  2142193895
 LenX=  2142193895 LenY=  2142187054
 Requested convergence on RMS density matrix=1.00D-08 within 128 cycles.
 Requested convergence on MAX density matrix=1.00D-06.
 Requested convergence on             energy=1.00D-06.
 No special actions if energy rises.
 FoFCou: FMM=F IPFlag=           0 FMFlag=           0 FMFlg1=           0
         NFxFlg=           0 DoJE=F BraDBF=F KetDBF=F FulRan=T
         wScrn=  0.000000 ICntrl=     600 IOpCl=  0 I1Cent=           0 NGrid=           0
         NMat0=    1 NMatS0=   3240 NMatT0=    0 NMatD0=    1 NMtDS0=    0 NMtDT0=    0
 Symmetry not used in FoFCou.

 Cycle   1  Pass 1  IDiag  1:
 E= -158.474267369528    
 DIIS: error= 1.23D-05 at cycle   1 NSaved=   1.
 NSaved= 1 IEnMin= 1 EnMin= -158.474267369528     IErMin= 1 ErrMin= 1.23D-05
 ErrMax= 1.23D-05  0.00D+00 EMaxC= 1.00D-01 BMatC= 1.27D-08 BMatP= 1.27D-08
 IDIUse=1 WtCom= 1.00D+00 WtEn= 0.00D+00
 Coeff-Com:  0.100D+01
 Coeff:      0.100D+01
 Gap=     1.915 Goal=   None    Shift=    0.000
 RMSDP=1.96D-06 MaxDP=3.21D-05              OVMax= 5.79D-05

 Cycle   2  Pass 1  IDiag  1:
 E= -158.474267396594     Delta-E=       -0.000000027066 Rises=F Damp=F
 DIIS: error= 1.17D-06 at cycle   2 NSaved=   2.
 NSaved= 2 IEnMin= 2 EnMin= -158.474267396594     IErMin= 2 ErrMin= 1.17D-06
 ErrMax= 1.17D-06  0.00D+00 EMaxC= 1.00D-01 BMatC= 1.45D-10 BMatP= 1.27D-08
 IDIUse=1 WtCom= 1.00D+00 WtEn= 0.00D+00
 Coeff-Com: -0.874D-01 0.109D+01
 Coeff:     -0.874D-01 0.109D+01
 Gap=     0.404 Goal=   None    Shift=    0.000
 RMSDP=3.41D-07 MaxDP=4.93D-06 DE=-2.71D-08 OVMax= 7.54D-06

 Cycle   3  Pass 1  IDiag  1:
 E= -158.474267396882     Delta-E=       -0.000000000288 Rises=F Damp=F
 DIIS: error= 5.80D-07 at cycle   3 NSaved=   3.
 NSaved= 3 IEnMin= 3 EnMin= -158.474267396882     IErMin= 3 ErrMin= 5.80D-07
 ErrMax= 5.80D-07  0.00D+00 EMaxC= 1.00D-01 BMatC= 3.93D-11 BMatP= 1.45D-10
 IDIUse=1 WtCom= 1.00D+00 WtEn= 0.00D+00
 Coeff-Com: -0.428D-01 0.474D+00 0.569D+00
 Coeff:     -0.428D-01 0.474D+00 0.569D+00
 Gap=     0.404 Goal=   None    Shift=    0.000
 RMSDP=8.87D-08 MaxDP=1.69D-06 DE=-2.88D-10 OVMax= 1.87D-06

 Cycle   4  Pass 1  IDiag  1:
 E= -158.474267396921     Delta-E=       -0.000000000038 Rises=F Damp=F
 DIIS: error= 1.65D-07 at cycle   4 NSaved=   4.
 NSaved= 4 IEnMin= 4 EnMin= -158.474267396921     IErMin= 4 ErrMin= 1.65D-07
 ErrMax= 1.65D-07  0.00D+00 EMaxC= 1.00D-01 BMatC= 2.02D-12 BMatP= 3.93D-11
 IDIUse=1 WtCom= 1.00D+00 WtEn= 0.00D+00
 Coeff-Com: -0.939D-02 0.931D-01 0.216D+00 0.700D+00
 Coeff:     -0.939D-02 0.931D-01 0.216D+00 0.700D+00
 Gap=     0.404 Goal=   None    Shift=    0.000
 RMSDP=2.06D-08 MaxDP=3.66D-07 DE=-3.83D-11 OVMax= 4.12D-07

 Cycle   5  Pass 1  IDiag  1:
 E= -158.474267396923     Delta-E=       -0.000000000002 Rises=F Damp=F
 DIIS: error= 3.48D-08 at cycle   5 NSaved=   5.
 NSaved= 5 IEnMin= 5 EnMin= -158.474267396923     IErMin= 5 ErrMin= 3.48D-08
 ErrMax= 3.48D-08  0.00D+00 EMaxC= 1.00D-01 BMatC= 1.42D-13 BMatP= 2.02D-12
 IDIUse=1 WtCom= 1.00D+00 WtEn= 0.00D+00
 Coeff-Com:  0.236D-03-0.637D-02 0.303D-01 0.261D+00 0.715D+00
 Coeff:      0.236D-03-0.637D-02 0.303D-01 0.261D+00 0.715D+00
 Gap=     0.404 Goal=   None    Shift=    0.000
 RMSDP=6.26D-09 MaxDP=6.45D-08 DE=-2.33D-12 OVMax= 1.16D-07

 SCF Done:  E(RB3LYP) =  -158.474267397     A.U. after    5 cycles
            NFock=  5  Conv=0.63D-08     -V/T= 2.0105
 KE= 1.568198335521D+02 PE=-6.338535268340D+02 EE= 1.843338250176D+02
 Leave Link  502 at Wed Mar 30 17:49:26 2016, MaxMem=  2147483648 cpu:        20.6
 (Enter /vol-th/home/you/softwares/gaussian/g09D01/g09/l701.exe)
 Compute integral first derivatives.
 ... and contract with generalized density number  0.
 R6Disp: Adding Grimme-D3(BJ) dispersion energy 1st derivatives to the gradient.
 Leave Link  701 at Wed Mar 30 17:49:26 2016, MaxMem=  2147483648 cpu:         1.6
 (Enter /vol-th/home/you/softwares/gaussian/g09D01/g09/l702.exe)
 L702 exits ... SP integral derivatives will be done elsewhere.
 Leave Link  702 at Wed Mar 30 17:49:26 2016, MaxMem=  2147483648 cpu:         0.3
[...]
     Eigenvalues ---    0.04842   0.04843   0.12078   0.12083   0.12414
     Eigenvalues ---    0.12416   0.13036   0.14109   0.14915   0.14919
     Eigenvalues ---    0.15608   0.18848   0.18854   0.28634   0.28645
     Eigenvalues ---    0.30371   0.32884   0.33286   0.33288   0.33425
     Eigenvalues ---    0.33540   0.33717   0.33717   0.34408   0.34409
     Eigenvalues ---    0.34638
 Angle between quadratic step and forces=  73.70 degrees.
 Linear search not attempted -- first point.
 Iteration  1 RMS(Cart)=  0.00015323 RMS(Int)=  0.00000002
 Iteration  2 RMS(Cart)=  0.00000002 RMS(Int)=  0.00000000
 ITry= 1 IFail=0 DXMaxC= 5.08D-04 DCOld= 1.00D+10 DXMaxT= 3.00D-01 DXLimC= 3.00D+00 Rises=F
 Variable       Old X    -DE/DX   Delta X   Delta X   Delta X     New X
                                 (Linear)    (Quad)   (Total)
    R1        2.07466   0.00000   0.00000  -0.00001  -0.00001   2.07466
    R2        2.07182   0.00000   0.00000  -0.00001  -0.00001   2.07181
    R3        2.07181   0.00000   0.00000   0.00000   0.00000   2.07182
    R4        2.89784  -0.00001   0.00000  -0.00004  -0.00004   2.89780
    R5        2.07906   0.00000   0.00000   0.00000   0.00000   2.07906
    R6        2.89785   0.00001   0.00000   0.00004   0.00004   2.89788
    R7        2.89784   0.00000   0.00000   0.00000   0.00000   2.89784
    R8        2.07181   0.00000   0.00000   0.00001   0.00001   2.07182
    R9        2.07181   0.00000   0.00000   0.00000   0.00000   2.07181
   R10        2.07467   0.00000   0.00000   0.00000   0.00000   2.07468
   R11        2.07181   0.00000   0.00000   0.00001   0.00001   2.07182
   R12        2.07182   0.00000   0.00000   0.00000   0.00000   2.07181
   R13        2.07467   0.00000   0.00000   0.00001   0.00001   2.07467
    A1        1.87933   0.00000   0.00000   0.00001   0.00001   1.87934
    A2        1.87934   0.00000   0.00000   0.00001   0.00001   1.87935
    A3        1.93145   0.00000   0.00000   0.00000   0.00000   1.93145
    A4        1.88389   0.00000   0.00000   0.00002   0.00002   1.88390
    A5        1.94359  -0.00001   0.00000  -0.00004  -0.00004   1.94355
    A6        1.94355   0.00000   0.00000   0.00001   0.00001   1.94356
    A7        1.88358   0.00000   0.00000   0.00002   0.00002   1.88359
    A8        1.93691   0.00000   0.00000  -0.00001  -0.00001   1.93690
    A9        1.93689   0.00001   0.00000   0.00005   0.00005   1.93694
   A10        1.88356   0.00000   0.00000  -0.00001  -0.00001   1.88356
   A11        1.88356   0.00000   0.00000   0.00002   0.00002   1.88358
   A12        1.93692  -0.00001   0.00000  -0.00008  -0.00008   1.93684
   A13        1.94355   0.00000   0.00000   0.00004   0.00004   1.94359
   A14        1.94358   0.00000   0.00000   0.00000   0.00000   1.94358
   A15        1.93148   0.00000   0.00000  -0.00001  -0.00001   1.93147
   A16        1.88390   0.00000   0.00000  -0.00002  -0.00002   1.88388
   A17        1.87932   0.00000   0.00000   0.00000   0.00000   1.87932
   A18        1.87932   0.00000   0.00000  -0.00002  -0.00002   1.87931
   A19        1.94358   0.00000   0.00000  -0.00002  -0.00002   1.94356
   A20        1.94356   0.00000   0.00000   0.00003   0.00003   1.94360
   A21        1.93147   0.00000   0.00000  -0.00002  -0.00002   1.93146
   A22        1.88389   0.00000   0.00000  -0.00001  -0.00001   1.88388
   A23        1.87932   0.00000   0.00000   0.00000   0.00000   1.87932
   A24        1.87933   0.00000   0.00000   0.00001   0.00001   1.87934
    D1        3.14155   0.00000   0.00000   0.00001   0.00001   3.14156
    D2        1.08110   0.00000   0.00000   0.00001   0.00001   1.08111
    D3       -1.08119   0.00000   0.00000   0.00007   0.00007  -1.08112
    D4        1.05179   0.00000   0.00000   0.00003   0.00003   1.05181
    D5       -1.00866   0.00000   0.00000   0.00003   0.00003  -1.00863
    D6        3.11223   0.00000   0.00000   0.00009   0.00009   3.11233
    D7       -1.05190   0.00000   0.00000   0.00003   0.00003  -1.05187
    D8       -3.11235   0.00000   0.00000   0.00003   0.00003  -3.11232
    D9        1.00854   0.00000   0.00000   0.00009   0.00009   1.00864
   D10        1.00855   0.00000   0.00000  -0.00014  -0.00014   1.00841
   D11        3.11225   0.00000   0.00000  -0.00014  -0.00014   3.11211
   D12       -1.08118   0.00000   0.00000  -0.00016  -0.00016  -1.08134
   D13       -1.05191   0.00000   0.00000  -0.00016  -0.00016  -1.05206
   D14        1.05179   0.00000   0.00000  -0.00015  -0.00015   1.05164
   D15        3.14154   0.00000   0.00000  -0.00017  -0.00017   3.14137
   D16       -3.11236   0.00000   0.00000  -0.00013  -0.00013  -3.11249
   D17       -1.00866   0.00000   0.00000  -0.00013  -0.00013  -1.00879
   D18        1.08109   0.00000   0.00000  -0.00015  -0.00015   1.08094
   D19       -3.11224   0.00000   0.00000  -0.00037  -0.00037  -3.11260
   D20       -1.00854   0.00000   0.00000  -0.00037  -0.00037  -1.00891
   D21        1.08120   0.00000   0.00000  -0.00034  -0.00034   1.08086
   D22       -1.05178   0.00000   0.00000  -0.00030  -0.00030  -1.05209
   D23        1.05191   0.00000   0.00000  -0.00030  -0.00030   1.05161
   D24       -3.14153   0.00000   0.00000  -0.00028  -0.00028   3.14138
   D25        1.00867   0.00000   0.00000  -0.00034  -0.00034   1.00833
   D26        3.11236   0.00000   0.00000  -0.00034  -0.00034   3.11202
   D27       -1.08108   0.00000   0.00000  -0.00031  -0.00031  -1.08140
         Item               Value     Threshold  Converged?
 Maximum Force            0.000010     0.000015     YES
 RMS     Force            0.000003     0.000010     YES
 Maximum Displacement     0.000508     0.000060     NO 
 RMS     Displacement     0.000153     0.000040     NO 
 Predicted change in Energy=-3.467661D-09
 GradGradGradGradGradGradGradGradGradGradGradGradGradGradGradGradGradGrad

 Leave Link  103 at Wed Mar 30 17:50:14 2016, MaxMem=  2147483648 cpu:         0.2
 (Enter /vol-th/home/you/softwares/gaussian/g09D01/g09/l9999.exe)
 1\1\GINC-CN555\Freq\RB3LYP\6-31G(d)\C4H10\ROOT\30-Mar-2016\0\\#P Geom=
 AllCheck Guess=TCheck SCRF=Check GenChk RB3LYP/6-31G(d) Freq\\using B3
 LYP/6-31G(d) to do opt and freq calc.\\0,1\C,-0.1656533056,1.449651423
 4,-0.0960437248\H,-0.1715703617,1.5018644081,-1.1926500781\H,0.6543760
 226,2.0826274871,0.2629783976\H,-1.1074051167,1.8812327386,0.262899655
 4\C,-0.0000014522,0.0000121361,0.3758019113\H,-0.0000039296,0.00000342
 91,1.4759934165\C,1.3382544038,-0.5813522143,-0.0960352277\H,2.1828878
 266,0.0184346591,0.2629169002\H,1.4763858331,-1.6080073043,0.262988663
 1\H,1.3864706717,-0.6023430899,-1.1926436112\C,-1.1726132878,-0.868249
 5262,-0.0960450776\H,-1.0755984315,-1.8996014008,0.26298222\H,-2.13078
 75106,-0.4744617159,0.262891667\H,-1.2148303621,-0.8995810302,-1.19265
 21118\\Version=ES64L-G09RevD.01\State=1-A\HF=-158.4742669\RMSD=9.016e-
 10\RMSF=4.164e-06\ZeroPoint=0.1324828\Thermal=0.1381593\Dipole=0.00000
 47,-0.0000107,0.0333984\DipoleDeriv=0.0736164,0.0062796,-0.0036575,0.0
 06269,0.0195412,0.0321051,0.0008558,-0.0073969,0.1302142,0.055086,0.00
 33057,0.0025618,0.0033121,0.026597,-0.02231,-0.0043947,0.0384732,-0.16
 74316,-0.0734046,-0.1233784,-0.0557306,-0.0891269,-0.0630836,-0.021053
 4,-0.0572023,-0.0342207,0.0303375,-0.1196147,0.1102883,0.0590285,0.076
 0413,-0.0169028,-0.0079265,0.06344,-0.0204239,0.0303442,0.1699066,0.00
 00017,-0.0000307,-0.000067,0.1698911,0.0000328,0.0000062,-0.0000106,0.
 1384785,-0.0226679,-0.0000023,0.0000042,-0.0000027,-0.0226667,0.000000
 5,-0.0000027,0.0000034,-0.2088717,0.0276093,0.0202789,0.0296442,0.0203
 21,0.0655199,-0.0128894,-0.0068253,0.0029731,0.1302239,-0.1232574,-0.0
 739457,-0.0363866,-0.1081755,-0.0132443,-0.0471557,-0.049408,-0.044731
 2,0.0303448,0.0263626,0.0315469,0.0096335,0.0657818,-0.1628479,0.05878
 81,-0.001036,0.0666541,0.0303414,0.030861,0.0106906,-0.0205789,0.01069
 83,0.0508255,0.0089244,0.0355119,-0.0154309,-0.1674437,0.0384915,-0.02
 65597,-0.025963,-0.0265589,0.054687,-0.0192294,0.0059694,0.0044198,0.1
 302092,0.0381171,0.0149936,-0.0226493,-0.0192416,-0.1746134,0.0551005,
 -0.0140303,0.065171,0.0303414,-0.1576865,0.0404902,0.0460791,0.0747388
 ,0.0211817,-0.0377349,0.0582263,-0.032432,0.0303528,0.0365805,-0.01398
 93,0.0180453,-0.0139896,0.0451152,0.0133479,-0.0311102,-0.0230484,-0.1
 674409\Polar=45.3416314,-0.0001012,45.3419413,-0.0000628,0.0000234,40.
 7245023\PG=C01 [X(C4H10)]\NImag=0\\0.58284585,0.01107439,0.48710277,-0
 .00381964,0.03337531,0.56024299,-0.05019452,-0.00013084,-0.00088002,0.
 04823561,-0.00012886,-0.04917757,0.00775334,-0.00058016,0.05323280,-0.
 00090546,0.00802068,-0.30607097,0.00130559,-0.01138468,0.33423325,-0.1
 9797073,-0.11161458,-0.06586907,0.00056828,0.00141418,0.00031001,0.212
 54926,-0.11072361,-0.13255336,-0.04979367,0.00184094,0.00059222,0.0000
 9709,0.12268472,0.14504419,-0.06576675,-0.05022213,-0.07913167,-0.0260
 1790,-0.01913582,-0.00994057,0.07302427,0.05343473,0.08092534,-0.24353
 756,0.08592186,0.07539999,0.00128245,-0.00125369,-0.00032395,-0.020391
 33,0.00964474,0.00888214,0.26306087,0.08503476,-0.08702484,-0.03362695
 ,-0.00167837,-0.00012524,0.00002080,-0.01624730,0.00811007,0.00779601,
 -0.09535866,0.09456016,0.07539120,-0.03407122,-0.07911305,0.02967059,-
 0.01277012,-0.00994207,-0.01041489,0.00559170,0.00376125,-0.08319183,0
 .03556240,0.08090895,-0.08009506,0.01094499,-0.00391472,-0.00105857,0.
 00012577,-0.00012197,0.00239440,-0.02451406,0.00944632,-0.00335149,0.0
 2774290,-0.01070806,0.47994080,0.01095014,-0.17437914,0.03430143,0.000
 12423,-0.00190314,0.00098121,0.00292435,-0.01735011,0.00666414,0.00031
 661,-0.01158988,0.00435934,-0.00011460,0.48005551,-0.00375374,0.032812
 43,-0.09328494,-0.00388942,0.03394553,-0.01228342,0.00218396,-0.012330
 54,0.00316230,0.00065331,-0.01250432,0.00316128,0.00001006,-0.00001655
 ,0.59371126,-0.00011838,0.00032898,-0.00391793,0.00058993,0.00079709,-
 0.00029473,0.00012883,0.00007450,0.00050021,0.00011381,-0.00035347,-0.
 00035461,-0.04906643,-0.00000582,0.00000117,0.05785225,0.00032583,-0.0
 0294693,0.03429347,0.00079700,-0.00629274,0.00257863,-0.00043405,0.001
 32661,-0.00057640,0.00015160,0.00134392,-0.00067527,0.00000294,-0.0490
 6759,0.00000229,0.00000113,0.05785178,-0.00012567,0.00111498,-0.011015
 06,-0.00025897,0.00226579,0.00097299,0.00045234,0.00030316,0.00052801,
 -0.00050789,0.00019428,0.00052856,-0.00000196,0.00000664,-0.29597700,-
 0.00000240,-0.00000195,0.32293367,-0.00621230,0.00830922,0.00046229,0.
 00030607,-0.00107520,0.00046479,0.00082143,-0.00171528,0.00001522,0.00
 100944,-0.00108491,-0.00000169,-0.16022413,0.03535192,0.03028594,-0.00
 252490,0.00106128,0.00102941,0.50137373,0.03183442,-0.01845001,-0.0098
 3399,-0.00032993,0.00166354,-0.00081246,0.00068228,0.00116528,-0.00043
 907,0.00113441,-0.00626510,0.00191652,0.03537831,-0.09423012,-0.013140
 95,0.00106339,-0.00053897,-0.00044793,0.03596146,0.56848456,-0.0092692
 4,0.00330749,0.00397966,-0.00124276,0.00087244,0.00054828,0.00019634,-
 0.00055751,-0.00001426,-0.00119524,0.00309756,-0.00032859,0.03166936,-
 0.01373470,-0.09330175,0.03165792,-0.01375395,-0.01101456,0.03080638,-
 0.01340251,0.56025620,0.00085403,-0.00172682,-0.00047980,-0.00002113,0
 .00011343,0.00001178,0.00034010,0.00126109,0.00007649,0.00045149,0.000
 03280,0.00032975,-0.02169611,-0.01715468,-0.01115603,0.00112251,-0.000
 23030,0.00042355,-0.20015600,-0.11006809,-0.06682394,0.21925417,0.0006
 7616,0.00113768,0.00035278,0.00001377,-0.00007689,0.00003024,-0.000082
 67,-0.00000995,-0.00016497,-0.00017745,0.00023298,0.00000417,0.0102717
 6,0.00674173,0.00568596,-0.00073737,0.00033157,0.00034402,-0.11095767,
 -0.13037924,-0.04848101,0.12064272,0.13835017,-0.00041085,0.00013960,-
 0.00001651,-0.00010390,-0.00012288,-0.00003684,-0.00013745,0.00012362,
 0.00023305,0.00006804,0.00023223,-0.00012208,0.00912356,0.00709917,0.0
 0316163,-0.00040686,0.00064527,0.00052863,-0.06720766,-0.04825704,-0.0
 7912058,0.07239730,0.05425846,0.08091226,-0.00563154,0.00094026,0.0026
 1353,-0.00003706,-0.00031573,-0.00003095,0.00021127,0.00010629,0.00024
 198,-0.00011029,0.00205857,-0.00044587,-0.00306793,0.02768970,-0.01177
 206,0.00118382,-0.00068222,0.00003794,-0.05260037,0.02676865,-0.010187
 42,0.00384471,-0.02363603,0.01004935,0.05564150,0.00315915,0.00037802,
 -0.00204660,-0.00013326,0.00020194,0.00007742,-0.00010445,0.00047373,-
 0.00000272,0.00032896,-0.00083860,0.00045792,0.00023425,-0.01190154,0.
 00427538,-0.00017440,0.00027059,-0.00054514,0.02767785,-0.27786840,0.0
 8194543,0.00225364,-0.01612436,0.00622385,-0.03208669,0.30190982,0.001
 83306,-0.00056087,-0.00032857,0.00023434,-0.00033030,0.00043263,0.0000
 9991,0.00031430,-0.00012207,0.00030786,-0.00056006,0.00065740,0.001047
 82,-0.01151536,0.00316327,-0.00074987,-0.00014457,0.00052787,-0.010615
 22,0.08207685,-0.07912201,0.00230985,-0.01159072,0.00376166,0.00976364
 ,-0.08996736,0.08091754,0.00115464,-0.00133337,0.00047369,0.00013795,0
 .00033362,-0.00073703,-0.00003528,0.00011672,-0.00014922,0.00005610,-0
 .00034406,-0.00024728,-0.00175517,0.00033849,0.03132746,-0.00526260,0.
 00258181,0.00209200,-0.04933896,-0.00037881,0.00716539,0.00149994,0.00
 112733,-0.02589118,-0.00081980,-0.00061322,-0.00355711,0.05248134,-0.0
 0059265,0.00081494,-0.00144258,0.00022789,-0.00003434,0.00051569,0.000
 01606,-0.00006024,-0.00006596,-0.00016138,0.00010828,0.00032025,0.0003
 3959,-0.00120379,-0.01361601,0.00258217,-0.00044043,-0.00090907,-0.000
 38094,-0.05004860,-0.00312242,0.00155501,-0.00034215,-0.01930916,-0.00
 103796,0.00198232,0.03210330,-0.00188541,0.04900002,-0.00064480,0.0006
 8389,0.00054915,0.00027454,-0.00084370,0.00057105,0.00003284,0.0000003
 6,-0.00004058,0.00006505,-0.00005229,0.00043239,0.00090317,-0.00041441
 ,-0.01228036,0.00238088,-0.00103416,0.00097258,0.00741298,-0.00322580,
 -0.30606677,0.00018096,0.00026629,-0.00994052,-0.00007116,-0.00031557,
 -0.00994283,-0.01051801,0.00459094,0.33423532,0.00198315,-0.00357799,0
 .00176773,0.00006445,0.00070289,-0.00026954,0.00065038,0.00268621,-0.0
 0043061,0.00061272,0.00158683,0.00008409,-0.14131026,-0.04627451,-0.02
 653411,-0.00195533,-0.00138988,-0.00090227,-0.03279483,-0.01650283,-0.
 00875184,-0.00446745,0.00202793,0.00166052,0.00152634,-0.00108981,-0.0
 0038519,0.00192750,-0.00061060,-0.00093357,0.52058665,-0.02710734,-0.0
 2667250,-0.00968380,-0.00004194,0.00189682,-0.00089586,0.00046671,-0.0
 0590487,0.00186792,-0.00081353,0.00137602,-0.00043111,-0.04627133,-0.1
 1309189,-0.01964656,-0.00138983,-0.00110939,-0.00066844,0.00702991,0.0
 0811203,0.00451909,0.00424750,-0.00078730,-0.00095690,0.00130599,0.000
 46167,0.00020373,0.00013761,0.00003919,0.00000225,-0.04701836,0.549298
 67,0.00828829,0.00531835,0.00397798,0.00101643,0.00113263,0.00054951,0
 .00046581,0.00328703,-0.00032817,-0.00006703,-0.00058849,-0.00001493,-
 0.02775931,-0.02054972,-0.09328165,-0.02774008,-0.02053970,-0.01101543
 ,0.00750844,0.00637223,0.00397950,0.00328024,-0.00051336,-0.00032841,-
 0.00058202,0.00010788,-0.00001318,0.00137700,0.00064002,0.00054913,-0.
 02700223,-0.01999669,0.56023850,-0.00442474,-0.00205225,-0.00208458,-0
 .00012363,0.00024057,0.00001270,0.00037733,-0.00177684,0.00033116,0.00
 022490,-0.00016361,-0.00023511,0.00262236,-0.02431030,0.01050381,0.000
 94910,0.00083877,0.00008663,0.00151541,-0.00106019,0.00054399,0.000350
 17,0.00023613,-0.00016153,-0.00043764,0.00052658,-0.00018239,-0.000112
 03,0.00004468,0.00002109,-0.05211408,0.02546856,-0.00856506,0.05409008
 ,-0.00427171,-0.00083077,-0.00258378,0.00005753,0.00028759,0.00008268,
 -0.00004739,-0.00132604,0.00054671,0.00004684,0.00045969,-0.00005721,0
 .00313055,-0.01756412,0.00681870,0.00033107,0.00050734,-0.00053800,0.0
 0133839,0.00047069,0.00023758,0.00002532,0.00033411,-0.00028748,-0.000
 81725,0.00076204,0.00001813,-0.00005884,0.00001916,-0.00002393,0.02457
 676,-0.27841403,0.08212944,-0.02526817,0.30350007,-0.00165912,-0.00096
 008,-0.00032810,-0.00015379,-0.00037449,0.00043222,-0.00017360,-0.0006
 1513,0.00065727,-0.00016828,0.00028350,-0.00012218,0.00157901,-0.01145
 189,0.00316199,0.00076271,0.00003011,0.00052903,0.00032818,0.00028563,
 -0.00001529,0.00016705,-0.00017500,-0.00012204,0.00017579,0.00006095,0
 .00022973,-0.00005483,0.00015279,-0.00003982,-0.00818063,0.08234798,-0
 .07912951,0.01078323,-0.08984752,0.08092757,0.00063242,0.00160667,0.00
 038293,0.00000406,-0.00009444,-0.00001671,0.00040851,0.00000785,-0.000
 32206,0.00058699,-0.00111925,-0.00003467,-0.02176230,0.01056773,0.0095
 8584,0.00086942,0.00035485,-0.00048985,-0.00290056,-0.00473689,-0.0030
 7957,-0.00169036,0.00058328,0.00061942,0.00040668,-0.00000870,-0.00012
 329,0.00033597,-0.00008254,0.00008293,-0.24518039,0.08348268,0.0760386
 8,-0.00187092,0.00104569,0.00036333,0.26816635,-0.00079327,0.00135589,
 0.00044704,0.00000856,-0.00009772,0.00002802,0.00021821,0.00027589,-0.
 00007046,0.00022169,-0.00026227,-0.00017897,-0.01686887,0.00680830,0.0
 0805521,0.00086107,0.00058506,0.00023906,-0.00251735,-0.00235347,-0.00
 124005,-0.00114639,0.00074141,0.00015721,-0.00021919,0.00027745,-0.000
 20812,0.00010026,-0.00017169,-0.00001189,0.08437457,-0.08536815,-0.032
 14235,0.02693665,-0.01040890,-0.01181238,-0.09058939,0.08945931,0.0003
 6972,0.00023139,-0.00001246,0.00013080,-0.00009537,-0.00003995,-0.0001
 1857,0.00021087,-0.00012214,0.00010905,0.00014994,0.00023131,-0.010494
 00,0.00485061,0.00316127,0.00024941,0.00072091,0.00052811,-0.00140196,
 -0.00130681,-0.00032855,-0.00063898,0.00001342,0.00065738,0.00022227,-
 0.00024374,-0.00012203,-0.00040314,-0.00003784,0.00043240,0.07635790,-
 0.03184329,-0.07912065,-0.01119496,0.00379596,0.00376140,-0.08276883,0
 .03651935,0.08091280,0.00071475,0.00130949,-0.00013438,0.00024611,-0.0
 0027948,0.00059547,-0.00005246,0.00030672,0.00016874,-0.00000810,-0.00
 010625,0.00015837,-0.00157012,-0.00040323,-0.02744620,-0.00388205,-0.0
 0337877,-0.00183285,0.00172597,0.00025382,-0.00148936,0.00031394,0.000
 01211,0.00040122,-0.00010969,0.00003011,0.00001661,-0.00026959,-0.0000
 1393,0.00081309,-0.04952885,0.00050337,-0.00625917,-0.00104631,-0.0000
 8879,-0.00376903,0.00199414,-0.00058655,0.02958130,0.05147225,0.000562
 57,0.00124581,-0.00151200,-0.00017543,-0.00016726,0.00066054,0.0001239
 3,0.00021658,0.00036804,-0.00000199,-0.00008520,-0.00002839,-0.0004022
 1,-0.00132424,-0.02034057,-0.00337852,-0.00182082,-0.00135740,0.001001
 33,0.00023781,0.00031257,0.00019479,-0.00014975,0.00005403,-0.00007439
 ,0.00001532,0.00016106,-0.00012212,0.00033735,0.00037802,0.00050879,-0
 .04983627,-0.00465727,0.00033941,0.00220317,0.03207552,-0.00101754,-0.
 00084111,-0.01296541,0.00244138,0.04996859,0.00047300,0.00081019,0.000
 55156,-0.00008553,-0.00091238,0.00057389,-0.00005188,-0.00006601,0.000
 43222,-0.00003120,-0.00000461,-0.00003823,-0.00077928,-0.00057991,-0.0
 1227389,-0.00208582,-0.00154466,0.00097259,0.00091291,0.00021536,0.000
 54871,-0.00007821,-0.00003028,0.00043236,-0.00001502,-0.00002771,-0.00
 003942,-0.00087774,0.00018005,0.00056887,-0.00648027,-0.00481834,-0.30
 606269,0.00014103,-0.00029128,-0.00994227,-0.00023815,0.00021832,-0.00
 993890,0.00919617,0.00685125,0.33421519\\-0.00000488,0.00000228,0.0000
 0150,-0.00000137,0.00000108,-0.00000142,-0.00000014,0.00000544,0.00000
 133,-0.00000037,0.00000043,0.00000084,0.00001445,-0.00001921,-0.000002
 52,0.00000022,-0.00000100,-0.00000025,0.00000106,0.00000410,-0.0000001
 7,-0.00000459,0.00000118,-0.00000114,-0.00000110,0.00000014,-0.0000009
 6,-0.00000051,0.00000278,0.00000027,-0.00000075,-0.00000071,0.00000068
 ,-0.00000050,0.00000202,-0.00000052,-0.00000037,0.00000237,-0.00000045
 ,-0.00000116,-0.00000090,0.00000280\\\@


 MICHAEL FARADAY, ASKED BY A POLITICIAN WHAT GOOD
 HIS ELECTRICAL DISCOVERIES WERE, REPLIED 
 "AT PRESENT I DO NOT KNOW, BUT ONE DAY YOU WILL BE
 ABLE TO TAX THEM."
 Job cpu time:       0 days  0 hours  5 minutes 14.2 seconds.
 File lengths (MBytes):  RWF=     14 Int=      0 D2E=      0 Chk=      2 Scr=      1
 Normal termination of Gaussian 09 at Wed Mar 30 17:50:14 2016.
