 Entering Gaussian System, Link 0=/vol-th/home/you/softwares/gaussian/g09D01/g09/g09
 Input=C4H10_1_6_opt_B3LD3.gjf
 Output=C4H10_1_6_opt_B3LD3.log
 Initial command:
 /vol-th/home/you/softwares/gaussian/g09D01/g09/l1.exe "/vol-th/home/you/scratch/Gau-12326.inp" -scrdir="/vol-th/home/you/scratch/"
 Entering Link 1 = /vol-th/home/you/softwares/gaussian/g09D01/g09/l1.exe PID=     12327.
  
 Copyright (c) 1988,1990,1992,1993,1995,1998,2003,2009,2013,
            Gaussian, Inc.  All Rights Reserved.
  
 This is part of the Gaussian(R) 09 program.  It is based on
 the Gaussian(R) 03 system (copyright 2003, Gaussian, Inc.),
 the Gaussian(R) 98 system (copyright 1998, Gaussian, Inc.),
 the Gaussian(R) 94 system (copyright 1995, Gaussian, Inc.),
 the Gaussian 92(TM) system (copyright 1992, Gaussian, Inc.),
 the Gaussian 90(TM) system (copyright 1990, Gaussian, Inc.),
 the Gaussian 88(TM) system (copyright 1988, Gaussian, Inc.),
 the Gaussian 86(TM) system (copyright 1986, Carnegie Mellon
 University), and the Gaussian 82(TM) system (copyright 1983,
 Carnegie Mellon University). Gaussian is a federally registered
 trademark of Gaussian, Inc.
  
 This software contains proprietary and confidential information,
 including trade secrets, belonging to Gaussian, Inc.
  
 This software is provided under written license and may be
 used, copied, transmitted, or stored only in accord with that
 written license.
  
 The following legend is applicable only to US Government
 contracts under FAR:
  
                    RESTRICTED RIGHTS LEGEND
  
 Use, reproduction and disclosure by the US Government is
 subject to restrictions as set forth in subparagraphs (a)
 and (c) of the Commercial Computer Software - Restricted
 Rights clause in FAR 52.227-19.
  
 Gaussian, Inc.
 340 Quinnipiac St., Bldg. 40, Wallingford CT 06492
  
  
 ---------------------------------------------------------------
 Warning -- This program may not be used in any manner that
 competes with the business of Gaussian, Inc. or will provide
 assistance to any competitor of Gaussian, Inc.  The licensee
 of this program is prohibited from giving any competitor of
 Gaussian, Inc. access to this program.  By using this program,
 the user acknowledges that Gaussian, Inc. is engaged in the
 business of creating and licensing software in the field of
 computational chemistry and represents and warrants to the
 licensee that it is not a competitor of Gaussian, Inc. and that
 it will not use this program in any manner prohibited above.
 ---------------------------------------------------------------
  

 Cite this work as:
 Gaussian 09, Revision D.01,
 M. J. Frisch, G. W. Trucks, H. B. Schlegel, G. E. Scuseria, 
 M. A. Robb, J. R. Cheeseman, G. Scalmani, V. Barone, B. Mennucci, 
 G. A. Petersson, H. Nakatsuji, M. Caricato, X. Li, H. P. Hratchian, 
 A. F. Izmaylov, J. Bloino, G. Zheng, J. L. Sonnenberg, M. Hada, 
 M. Ehara, K. Toyota, R. Fukuda, J. Hasegawa, M. Ishida, T. Nakajima, 
 Y. Honda, O. Kitao, H. Nakai, T. Vreven, J. A. Montgomery, Jr., 
 J. E. Peralta, F. Ogliaro, M. Bearpark, J. J. Heyd, E. Brothers, 
 K. N. Kudin, V. N. Staroverov, T. Keith, R. Kobayashi, J. Normand, 
 K. Raghavachari, A. Rendell, J. C. Burant, S. S. Iyengar, J. Tomasi, 
 M. Cossi, N. Rega, J. M. Millam, M. Klene, J. E. Knox, J. B. Cross, 
 V. Bakken, C. Adamo, J. Jaramillo, R. Gomperts, R. E. Stratmann, 
 O. Yazyev, A. J. Austin, R. Cammi, C. Pomelli, J. W. Ochterski, 
 R. L. Martin, K. Morokuma, V. G. Zakrzewski, G. A. Voth, 
 P. Salvador, J. J. Dannenberg, S. Dapprich, A. D. Daniels, 
 O. Farkas, J. B. Foresman, J. V. Ortiz, J. Cioslowski, 
 and D. J. Fox, Gaussian, Inc., Wallingford CT, 2013.
 
 ******************************************
 Gaussian 09:  ES64L-G09RevD.01 24-Apr-2013
                30-Mar-2016 
 ******************************************
 %mem=16GB
 %nprocshared=12
 Will use up to   12 processors via shared memory.
 ----------------------------------------------------------------------
 #p B3LYP/6-31G(d) opt=tight int=ultrafine freq EmpiricalDispersion=GD3
 BJ
 ----------------------------------------------------------------------
 1/7=10,14=-1,18=20,19=15,26=4,38=1/1,3;
 2/9=110,12=2,17=6,18=5,40=1/2;
 3/5=1,6=6,7=1,11=2,16=1,25=1,30=1,71=1,74=-5,75=-5,124=41/1,2,3;
 4//1;
 5/5=2,38=5/2;
 6/7=2,8=2,9=2,10=2,28=1/1;
 7//1,2,3,16;
 1/7=10,14=-1,18=20,19=15,26=4/3(2);
 2/9=110/2;
 99//99;
 2/9=110/2;
 3/5=1,6=6,7=1,11=2,16=1,25=1,30=1,71=1,74=-5,75=-5,124=41/1,2,3;
 4/5=5,16=3,69=1/1;
 5/5=2,38=5/2;
 7//1,2,3,16;
 1/7=10,14=-1,18=20,19=15,26=4/3(-5);
 2/9=110/2;
 6/7=2,8=2,9=2,10=2,19=2,28=1/1;
 99/9=1/99;
 Leave Link    1 at Wed Mar 30 17:48:56 2016, MaxMem=  2147483648 cpu:         1.0
 (Enter /vol-th/home/you/softwares/gaussian/g09D01/g09/l101.exe)
 ---------------------------------------------
 using B3LYP/6-31G(d) to do opt and freq calc.
 ---------------------------------------------
 Symbolic Z-matrix:
 Charge =  0 Multiplicity = 1
 C                     0.70487   1.83057   0. 
 H                     0.18933   2.22436   0.88448 
 H                     0.18933   2.22436  -0.88448 
 H                     1.72378   2.23375   0. 
 C                     0.70487   0.30011   0. 
 H                     1.25364  -0.06869  -0.87812 
 H                     1.25364  -0.06869   0.87812 
 C                    -0.70487  -0.30011   0. 
 H                    -1.25364   0.06869  -0.87812 
 H                    -1.25364   0.06869   0.87812 
 C                    -0.70487  -1.83057   0. 
 H                    -0.18933  -2.22436   0.88448 
 H                    -1.72378  -2.23375   0. 
 H                    -0.18933  -2.22436  -0.88448 
 
 NAtoms=     14 NQM=       14 NQMF=       0 NMMI=      0 NMMIF=      0
                NMic=       0 NMicF=      0.
                    Isotopes and Nuclear Properties:
 (Nuclear quadrupole moments (NQMom) in fm**2, nuclear magnetic moments (NMagM)
  in nuclear magnetons)

  Atom         1           2           3           4           5           6           7           8           9          10
 IAtWgt=          12           1           1           1          12           1           1          12           1           1
 AtmWgt=  12.0000000   1.0078250   1.0078250   1.0078250  12.0000000   1.0078250   1.0078250  12.0000000   1.0078250   1.0078250
 NucSpn=           0           1           1           1           0           1           1           0           1           1
 AtZEff=   0.0000000   0.0000000   0.0000000   0.0000000   0.0000000   0.0000000   0.0000000   0.0000000   0.0000000   0.0000000
 NQMom=    0.0000000   0.0000000   0.0000000   0.0000000   0.0000000   0.0000000   0.0000000   0.0000000   0.0000000   0.0000000
 NMagM=    0.0000000   2.7928460   2.7928460   2.7928460   0.0000000   2.7928460   2.7928460   0.0000000   2.7928460   2.7928460
 AtZNuc=   6.0000000   1.0000000   1.0000000   1.0000000   6.0000000   1.0000000   1.0000000   6.0000000   1.0000000   1.0000000

  Atom        11          12          13          14
 IAtWgt=          12           1           1           1
 AtmWgt=  12.0000000   1.0078250   1.0078250   1.0078250
 NucSpn=           0           1           1           1
 AtZEff=   0.0000000   0.0000000   0.0000000   0.0000000
 NQMom=    0.0000000   0.0000000   0.0000000   0.0000000
 NMagM=    0.0000000   2.7928460   2.7928460   2.7928460
 AtZNuc=   6.0000000   1.0000000   1.0000000   1.0000000
 Leave Link  101 at Wed Mar 30 17:48:56 2016, MaxMem=  2147483648 cpu:         5.0
 (Enter /vol-th/home/you/softwares/gaussian/g09D01/g09/l103.exe)

 GradGradGradGradGradGradGradGradGradGradGradGradGradGradGradGradGradGrad
 Berny optimization.
 Initialization pass.
                           ----------------------------
                           !    Initial Parameters    !
                           ! (Angstroms and Degrees)  !
 --------------------------                            --------------------------
 ! Name  Definition              Value          Derivative Info.                !
 --------------------------------------------------------------------------------
 ! R1    R(1,2)                  1.0969         estimate D2E/DX2                !
 ! R2    R(1,3)                  1.0969         estimate D2E/DX2                !
 ! R3    R(1,4)                  1.0958         estimate D2E/DX2                !
 ! R4    R(1,5)                  1.5305         estimate D2E/DX2                !
 ! R5    R(5,6)                  1.0992         estimate D2E/DX2                !
 ! R6    R(5,7)                  1.0992         estimate D2E/DX2                !
 ! R7    R(5,8)                  1.5322         estimate D2E/DX2                !
 ! R8    R(8,9)                  1.0992         estimate D2E/DX2                !
 ! R9    R(8,10)                 1.0992         estimate D2E/DX2                !
 ! R10   R(8,11)                 1.5305         estimate D2E/DX2                !
 ! R11   R(11,12)                1.0969         estimate D2E/DX2                !
 ! R12   R(11,13)                1.0958         estimate D2E/DX2                !
 ! R13   R(11,14)                1.0969         estimate D2E/DX2                !
 ! A1    A(2,1,3)              107.4823         estimate D2E/DX2                !
 ! A2    A(2,1,4)              107.7543         estimate D2E/DX2                !
 ! A3    A(2,1,5)              111.0396         estimate D2E/DX2                !
 ! A4    A(3,1,4)              107.7543         estimate D2E/DX2                !
 ! A5    A(3,1,5)              111.0396         estimate D2E/DX2                !
 ! A6    A(4,1,5)              111.589          estimate D2E/DX2                !
 ! A7    A(1,5,6)              109.6038         estimate D2E/DX2                !
 ! A8    A(1,5,7)              109.6038         estimate D2E/DX2                !
 ! A9    A(1,5,8)              113.0624         estimate D2E/DX2                !
 ! A10   A(6,5,7)              106.0445         estimate D2E/DX2                !
 ! A11   A(6,5,8)              109.1417         estimate D2E/DX2                !
 ! A12   A(7,5,8)              109.1417         estimate D2E/DX2                !
 ! A13   A(5,8,9)              109.1417         estimate D2E/DX2                !
 ! A14   A(5,8,10)             109.1417         estimate D2E/DX2                !
 ! A15   A(5,8,11)             113.0624         estimate D2E/DX2                !
 ! A16   A(9,8,10)             106.0445         estimate D2E/DX2                !
 ! A17   A(9,8,11)             109.6038         estimate D2E/DX2                !
 ! A18   A(10,8,11)            109.6038         estimate D2E/DX2                !
 ! A19   A(8,11,12)            111.0396         estimate D2E/DX2                !
 ! A20   A(8,11,13)            111.589          estimate D2E/DX2                !
 ! A21   A(8,11,14)            111.0396         estimate D2E/DX2                !
 ! A22   A(12,11,13)           107.7543         estimate D2E/DX2                !
 ! A23   A(12,11,14)           107.4823         estimate D2E/DX2                !
 ! A24   A(13,11,14)           107.7543         estimate D2E/DX2                !
 ! D1    D(2,1,5,6)           -178.2344         estimate D2E/DX2                !
 ! D2    D(2,1,5,7)            -62.2394         estimate D2E/DX2                !
 ! D3    D(2,1,5,8)             59.7631         estimate D2E/DX2                !
 ! D4    D(3,1,5,6)             62.2394         estimate D2E/DX2                !
 ! D5    D(3,1,5,7)            178.2344         estimate D2E/DX2                !
 ! D6    D(3,1,5,8)            -59.7631         estimate D2E/DX2                !
 ! D7    D(4,1,5,6)            -57.9975         estimate D2E/DX2                !
 ! D8    D(4,1,5,7)             57.9975         estimate D2E/DX2                !
 ! D9    D(4,1,5,8)            180.0            estimate D2E/DX2                !
 ! D10   D(1,5,8,9)             57.7388         estimate D2E/DX2                !
 ! D11   D(1,5,8,10)           -57.7388         estimate D2E/DX2                !
 ! D12   D(1,5,8,11)           180.0            estimate D2E/DX2                !
 ! D13   D(6,5,8,9)            -64.5225         estimate D2E/DX2                !
 ! D14   D(6,5,8,10)           180.0            estimate D2E/DX2                !
 ! D15   D(6,5,8,11)            57.7388         estimate D2E/DX2                !
 ! D16   D(7,5,8,9)            180.0            estimate D2E/DX2                !
 ! D17   D(7,5,8,10)            64.5225         estimate D2E/DX2                !
 ! D18   D(7,5,8,11)           -57.7388         estimate D2E/DX2                !
 ! D19   D(5,8,11,12)           59.7631         estimate D2E/DX2                !
 ! D20   D(5,8,11,13)          180.0            estimate D2E/DX2                !
 ! D21   D(5,8,11,14)          -59.7631         estimate D2E/DX2                !
 ! D22   D(9,8,11,12)         -178.2344         estimate D2E/DX2                !
 ! D23   D(9,8,11,13)          -57.9975         estimate D2E/DX2                !
 ! D24   D(9,8,11,14)           62.2394         estimate D2E/DX2                !
 ! D25   D(10,8,11,12)         -62.2394         estimate D2E/DX2                !
 ! D26   D(10,8,11,13)          57.9975         estimate D2E/DX2                !
 ! D27   D(10,8,11,14)         178.2344         estimate D2E/DX2                !
 --------------------------------------------------------------------------------
 Trust Radius=3.00D-01 FncErr=1.00D-07 GrdErr=1.00D-06
 Number of steps in this run=     74 maximum allowed number of steps=    100.
 GradGradGradGradGradGradGradGradGradGradGradGradGradGradGradGradGradGrad

 Leave Link  103 at Wed Mar 30 17:48:56 2016, MaxMem=  2147483648 cpu:         0.1
 (Enter /vol-th/home/you/softwares/gaussian/g09D01/g09/l202.exe)
                          Input orientation:                          
 ---------------------------------------------------------------------
 Center     Atomic      Atomic             Coordinates (Angstroms)
 Number     Number       Type             X           Y           Z
 ---------------------------------------------------------------------
      1          6           0        0.704871    1.830566    0.000000
      2          1           0        0.189326    2.224364    0.884483
      3          1           0        0.189326    2.224364   -0.884483
      4          1           0        1.723783    2.233755    0.000000
      5          6           0        0.704871    0.300106    0.000000
      6          1           0        1.253636   -0.068694   -0.878122
      7          1           0        1.253636   -0.068694    0.878122
      8          6           0       -0.704871   -0.300106    0.000000
      9          1           0       -1.253636    0.068694   -0.878122
     10          1           0       -1.253636    0.068694    0.878122
     11          6           0       -0.704871   -1.830566    0.000000
     12          1           0       -0.189326   -2.224364    0.884483
     13          1           0       -1.723783   -2.233755    0.000000
     14          1           0       -0.189326   -2.224364   -0.884483
 ---------------------------------------------------------------------
                    Distance matrix (angstroms):
                    1          2          3          4          5
     1  C    0.000000
     2  H    1.096893   0.000000
     3  H    1.096893   1.768966   0.000000
     4  H    1.095784   1.771146   1.771146   0.000000
     5  C    1.530460   2.179648   2.179648   2.185676   0.000000
     6  H    2.163199   3.081825   2.528025   2.508667   1.099206
     7  H    2.163199   2.528025   3.081825   2.508667   1.099206
     8  C    2.554826   2.820434   2.820434   3.509816   1.532197
     9  H    2.776876   3.136213   2.594050   3.784655   2.158796
    10  H    2.776876   2.594050   3.136213   3.784655   2.158796
    11  C    3.923170   4.245510   4.245510   4.734666   2.554826
    12  H    4.245510   4.464813   4.802478   4.931239   2.820434
    13  H    4.734666   4.931239   4.931239   5.643080   3.509816
    14  H    4.245510   4.802478   4.464813   4.931239   2.820434
                    6          7          8          9         10
     6  H    0.000000
     7  H    1.756244   0.000000
     8  C    2.158796   2.158796   0.000000
     9  H    2.511033   3.064259   1.099206   0.000000
    10  H    3.064259   2.511033   1.099206   1.756244   0.000000
    11  C    2.776876   2.776876   1.530460   2.163199   2.163199
    12  H    3.136213   2.594050   2.179648   3.081825   2.528025
    13  H    3.784655   3.784655   2.185676   2.508667   2.508667
    14  H    2.594050   3.136213   2.179648   2.528025   3.081825
                   11         12         13         14
    11  C    0.000000
    12  H    1.096893   0.000000
    13  H    1.095784   1.771146   0.000000
    14  H    1.096893   1.768966   1.771146   0.000000
 Stoichiometry    C4H10
 Framework group  C2H[SGH(C4H2),X(H8)]
 Deg. of freedom    11
 Full point group                 C2H     NOp   4
 Largest Abelian subgroup         C2H     NOp   4
 Largest concise Abelian subgroup C2H     NOp   4
                         Standard orientation:                         
 ---------------------------------------------------------------------
 Center     Atomic      Atomic             Coordinates (Angstroms)
 Number     Number       Type             X           Y           Z
 ---------------------------------------------------------------------
      1          6           0        0.704871    1.830566    0.000000
      2          1           0        0.189326    2.224364    0.884483
      3          1           0        0.189326    2.224364   -0.884483
      4          1           0        1.723783    2.233755    0.000000
      5          6           0        0.704871    0.300106    0.000000
      6          1           0        1.253636   -0.068694   -0.878122
      7          1           0        1.253636   -0.068694    0.878122
      8          6           0       -0.704871   -0.300106    0.000000
      9          1           0       -1.253636    0.068694   -0.878122
     10          1           0       -1.253636    0.068694    0.878122
     11          6           0       -0.704871   -1.830566    0.000000
     12          1           0       -0.189326   -2.224364    0.884483
     13          1           0       -1.723783   -2.233755    0.000000
     14          1           0       -0.189326   -2.224364   -0.884483
 ---------------------------------------------------------------------
 Rotational constants (GHZ):     23.3820433      3.6140889      3.3935075
 Leave Link  202 at Wed Mar 30 17:48:56 2016, MaxMem=  2147483648 cpu:         0.1
 (Enter /vol-th/home/you/softwares/gaussian/g09D01/g09/l301.exe)
 Standard basis: 6-31G(d) (6D, 7F)
 Ernie: Thresh=  0.10000D-02 Tol=  0.10000D-05 Strict=F.
 There are    28 symmetry adapted cartesian basis functions of AG  symmetry.
 There are    12 symmetry adapted cartesian basis functions of BG  symmetry.
 There are    12 symmetry adapted cartesian basis functions of AU  symmetry.
 There are    28 symmetry adapted cartesian basis functions of BU  symmetry.
 There are    28 symmetry adapted basis functions of AG  symmetry.
 There are    12 symmetry adapted basis functions of BG  symmetry.
 There are    12 symmetry adapted basis functions of AU  symmetry.
 There are    28 symmetry adapted basis functions of BU  symmetry.
    80 basis functions,   152 primitive gaussians,    80 cartesian basis functions
    17 alpha electrons       17 beta electrons
       nuclear repulsion energy       130.2909258261 Hartrees.
 IExCor=  402 DFT=T Ex+Corr=B3LYP ExCW=0 ScaHFX=  0.200000
 ScaDFX=  0.800000  0.720000  1.000000  0.810000 ScalE2=  1.000000  1.000000
 IRadAn=      5 IRanWt=     -1 IRanGd=            0 ICorTp=0 IEmpDi=141
 NAtoms=   14 NActive=   14 NUniq=    5 SFac= 4.00D+00 NAtFMM=   60 NAOKFM=F Big=F
 Integral buffers will be    131072 words long.
 Raffenetti 2 integral format.
 Two-electron integral symmetry is turned on.
 R6Disp:  Grimme-D3(BJ) Dispersion energy=       -0.0145703489 Hartrees.
 Nuclear repulsion after empirical dispersion term =      130.2763554772 Hartrees.
 Leave Link  301 at Wed Mar 30 17:48:56 2016, MaxMem=  2147483648 cpu:         0.7
 (Enter /vol-th/home/you/softwares/gaussian/g09D01/g09/l302.exe)
 NPDir=0 NMtPBC=     1 NCelOv=     1 NCel=       1 NClECP=     1 NCelD=      1
         NCelK=      1 NCelE2=     1 NClLst=     1 CellRange=     0.0.
 One-electron integrals computed using PRISM.
 One-electron integral symmetry used in STVInt
 NBasis=    80 RedAO= T EigKep=  4.65D-03  NBF=    28    12    12    28
 NBsUse=    80 1.00D-06 EigRej= -1.00D+00 NBFU=    28    12    12    28
 Precomputing XC quadrature grid using
 IXCGrd= 4 IRadAn=           5 IRanWt=          -1 IRanGd=           0 AccXCQ= 0.00D+00.
 Generated NRdTot=       0 NPtTot=           0 NUsed=           0 NTot=          32
 NSgBfM=    80    80    80    80    80 MxSgAt=    14 MxSgA2=    14.
 Leave Link  302 at Wed Mar 30 17:48:57 2016, MaxMem=  2147483648 cpu:         2.6
 (Enter /vol-th/home/you/softwares/gaussian/g09D01/g09/l303.exe)
 DipDrv:  MaxL=1.
 Leave Link  303 at Wed Mar 30 17:48:57 2016, MaxMem=  2147483648 cpu:         0.3
 (Enter /vol-th/home/you/softwares/gaussian/g09D01/g09/l401.exe)
 ExpMin= 1.61D-01 ExpMax= 3.05D+03 ExpMxC= 4.57D+02 IAcc=3 IRadAn=         5 AccDes= 0.00D+00
 Harris functional with IExCor=  402 and IRadAn=       5 diagonalized for initial guess.
 HarFok:  IExCor=  402 AccDes= 0.00D+00 IRadAn=         5 IDoV= 1 UseB2=F ITyADJ=14
 ICtDFT=  3500011 ScaDFX=  1.000000  1.000000  1.000000  1.000000
 FoFCou: FMM=F IPFlag=           0 FMFlag=      100000 FMFlg1=           0
         NFxFlg=           0 DoJE=T BraDBF=F KetDBF=T FulRan=T
         wScrn=  0.000000 ICntrl=     500 IOpCl=  0 I1Cent=   200000004 NGrid=           0
         NMat0=    1 NMatS0=      1 NMatT0=    0 NMatD0=    1 NMtDS0=    0 NMtDT0=    0
 Petite list used in FoFCou.
 Harris En= -158.539875777616    
 JPrj=0 DoOrth=F DoCkMO=F.
 Initial guess orbital symmetries:
       Occupied  (BU) (AG) (AG) (BU) (AG) (BU) (AG) (BU) (AU) (AG)
                 (BU) (BG) (BU) (AG) (AU) (AG) (BG)
       Virtual   (AG) (BU) (AU) (BU) (AG) (BU) (BG) (BU) (AG) (AU)
                 (BG) (BU) (AG) (BU) (AG) (AG) (AU) (BG) (AG) (BU)
                 (AU) (BU) (BU) (BG) (AG) (AU) (AG) (BU) (BG) (AU)
                 (AG) (BU) (BU) (AG) (BG) (AG) (BU) (AU) (BU) (AG)
                 (AG) (BU) (BG) (BU) (AG) (AG) (AU) (BU) (BG) (AG)
                 (BG) (AU) (BU) (BG) (AU) (AG) (BU) (AG) (BU) (AG)
                 (BU) (AG) (BU)
 The electronic state of the initial guess is 1-AG.
 Leave Link  401 at Wed Mar 30 17:48:57 2016, MaxMem=  2147483648 cpu:         2.4
 (Enter /vol-th/home/you/softwares/gaussian/g09D01/g09/l502.exe)
 Closed shell SCF:
 Using DIIS extrapolation, IDIIS=  1040.
 Integral symmetry usage will be decided dynamically.
 Keep R1 ints in memory in symmetry-blocked form, NReq=6650374.
 IVT=       39694 IEndB=       39694 NGot=  2147483648 MDV=  2146083775
 LenX=  2146083775 LenY=  2146076934
 Requested convergence on RMS density matrix=1.00D-08 within 128 cycles.
 Requested convergence on MAX density matrix=1.00D-06.
 Requested convergence on             energy=1.00D-06.
 No special actions if energy rises.
 FoFCou: FMM=F IPFlag=           0 FMFlag=           0 FMFlg1=           0
         NFxFlg=           0 DoJE=F BraDBF=F KetDBF=F FulRan=T
         wScrn=  0.000000 ICntrl=     600 IOpCl=  0 I1Cent=           0 NGrid=           0
         NMat0=    1 NMatS0=   3240 NMatT0=    0 NMatD0=    1 NMtDS0=    0 NMtDT0=    0
 Petite list used in FoFCou.
 Integral accuracy reduced to 1.0D-05 until final iterations.

 Cycle   1  Pass 0  IDiag  1:
 E= -158.269389046689    
 DIIS: error= 6.04D-02 at cycle   1 NSaved=   1.
 NSaved= 1 IEnMin= 1 EnMin= -158.269389046689     IErMin= 1 ErrMin= 6.04D-02
 ErrMax= 6.04D-02  0.00D+00 EMaxC= 1.00D-01 BMatC= 1.80D-01 BMatP= 1.80D-01
 IDIUse=3 WtCom= 3.96D-01 WtEn= 6.04D-01
 Coeff-Com:  0.100D+01
 Coeff-En:   0.100D+01
 Coeff:      0.100D+01
 Gap=     0.344 Goal=   None    Shift=    0.000
 GapD=    0.344 DampG=1.000 DampE=0.500 DampFc=0.5000 IDamp=-1.
 Damping current iteration by 5.00D-01
 RMSDP=1.21D-02 MaxDP=1.40D-01              OVMax= 1.85D-01

 Cycle   2  Pass 0  IDiag  1:
 E= -158.359907372152     Delta-E=       -0.090518325463 Rises=F Damp=T
 DIIS: error= 1.07D-02 at cycle   2 NSaved=   2.
 NSaved= 2 IEnMin= 2 EnMin= -158.359907372152     IErMin= 2 ErrMin= 1.07D-02
 ErrMax= 1.07D-02  0.00D+00 EMaxC= 1.00D-01 BMatC= 6.81D-03 BMatP= 1.80D-01
 IDIUse=3 WtCom= 8.93D-01 WtEn= 1.07D-01
 Coeff-Com:  0.795D-01 0.920D+00
 Coeff-En:   0.127D+00 0.873D+00
 Coeff:      0.846D-01 0.915D+00
 Gap=     0.409 Goal=   None    Shift=    0.000
 RMSDP=1.64D-03 MaxDP=1.98D-02 DE=-9.05D-02 OVMax= 9.71D-02

 Cycle   3  Pass 0  IDiag  1:
 E= -158.472156228305     Delta-E=       -0.112248856153 Rises=F Damp=F
 DIIS: error= 3.15D-03 at cycle   3 NSaved=   3.
 NSaved= 3 IEnMin= 3 EnMin= -158.472156228305     IErMin= 3 ErrMin= 3.15D-03
 ErrMax= 3.15D-03  0.00D+00 EMaxC= 1.00D-01 BMatC= 4.56D-04 BMatP= 6.81D-03
 IDIUse=3 WtCom= 9.68D-01 WtEn= 3.15D-02
 Coeff-Com:  0.430D-02 0.144D+00 0.852D+00
 Coeff-En:   0.000D+00 0.000D+00 0.100D+01
 Coeff:      0.416D-02 0.139D+00 0.857D+00
 Gap=     0.411 Goal=   None    Shift=    0.000
 RMSDP=4.34D-04 MaxDP=5.16D-03 DE=-1.12D-01 OVMax= 8.28D-03

 Cycle   4  Pass 0  IDiag  1:
 E= -158.472393207535     Delta-E=       -0.000236979230 Rises=F Damp=F
 DIIS: error= 1.62D-03 at cycle   4 NSaved=   4.
 NSaved= 4 IEnMin= 4 EnMin= -158.472393207535     IErMin= 4 ErrMin= 1.62D-03
 ErrMax= 1.62D-03  0.00D+00 EMaxC= 1.00D-01 BMatC= 2.17D-04 BMatP= 4.56D-04
 IDIUse=3 WtCom= 9.84D-01 WtEn= 1.62D-02
 Coeff-Com: -0.180D-03 0.256D-01 0.413D+00 0.562D+00
 Coeff-En:   0.000D+00 0.000D+00 0.298D+00 0.702D+00
 Coeff:     -0.177D-03 0.252D-01 0.411D+00 0.564D+00
 Gap=     0.413 Goal=   None    Shift=    0.000
 RMSDP=1.84D-04 MaxDP=2.67D-03 DE=-2.37D-04 OVMax= 3.72D-03

 Cycle   5  Pass 0  IDiag  1:
 E= -158.472596866868     Delta-E=       -0.000203659333 Rises=F Damp=F
 DIIS: error= 2.73D-04 at cycle   5 NSaved=   5.
 NSaved= 5 IEnMin= 5 EnMin= -158.472596866868     IErMin= 5 ErrMin= 2.73D-04
 ErrMax= 2.73D-04  0.00D+00 EMaxC= 1.00D-01 BMatC= 8.10D-06 BMatP= 2.17D-04
 IDIUse=3 WtCom= 9.97D-01 WtEn= 2.73D-03
 Coeff-Com:  0.105D-03-0.158D-02 0.946D-01 0.221D+00 0.685D+00
 Coeff-En:   0.000D+00 0.000D+00 0.000D+00 0.000D+00 0.100D+01
 Coeff:      0.105D-03-0.158D-02 0.943D-01 0.221D+00 0.686D+00
 Gap=     0.412 Goal=   None    Shift=    0.000
 RMSDP=2.90D-05 MaxDP=4.39D-04 DE=-2.04D-04 OVMax= 5.87D-04

 Cycle   6  Pass 0  IDiag  1:
 E= -158.472604503206     Delta-E=       -0.000007636338 Rises=F Damp=F
 DIIS: error= 1.22D-05 at cycle   6 NSaved=   6.
 NSaved= 6 IEnMin= 6 EnMin= -158.472604503206     IErMin= 6 ErrMin= 1.22D-05
 ErrMax= 1.22D-05  0.00D+00 EMaxC= 1.00D-01 BMatC= 1.49D-08 BMatP= 8.10D-06
 IDIUse=1 WtCom= 1.00D+00 WtEn= 0.00D+00
 Coeff-Com:  0.100D-03-0.571D-03 0.106D-01 0.279D-01 0.102D+00 0.860D+00
 Coeff:      0.100D-03-0.571D-03 0.106D-01 0.279D-01 0.102D+00 0.860D+00
 Gap=     0.412 Goal=   None    Shift=    0.000
 RMSDP=2.22D-06 MaxDP=1.89D-05 DE=-7.64D-06 OVMax= 3.57D-05

 Initial convergence to 1.0D-05 achieved.  Increase integral accuracy.
 Cycle   7  Pass 1  IDiag  1:
 E= -158.472599415527     Delta-E=        0.000005087680 Rises=F Damp=F
 DIIS: error= 5.12D-06 at cycle   1 NSaved=   1.
 NSaved= 1 IEnMin= 1 EnMin= -158.472599415527     IErMin= 1 ErrMin= 5.12D-06
 ErrMax= 5.12D-06  0.00D+00 EMaxC= 1.00D-01 BMatC= 2.15D-09 BMatP= 2.15D-09
 IDIUse=1 WtCom= 1.00D+00 WtEn= 0.00D+00
 Coeff-Com:  0.100D+01
 Coeff:      0.100D+01
 Gap=     0.412 Goal=   None    Shift=    0.000
 RMSDP=2.22D-06 MaxDP=1.89D-05 DE= 5.09D-06 OVMax= 1.80D-05

 Cycle   8  Pass 1  IDiag  1:
 E= -158.472599418270     Delta-E=       -0.000000002743 Rises=F Damp=F
 DIIS: error= 2.09D-06 at cycle   2 NSaved=   2.
 NSaved= 2 IEnMin= 2 EnMin= -158.472599418270     IErMin= 2 ErrMin= 2.09D-06
 ErrMax= 2.09D-06  0.00D+00 EMaxC= 1.00D-01 BMatC= 2.54D-10 BMatP= 2.15D-09
 IDIUse=1 WtCom= 1.00D+00 WtEn= 0.00D+00
 Coeff-Com:  0.187D+00 0.813D+00
 Coeff:      0.187D+00 0.813D+00
 Gap=     0.412 Goal=   None    Shift=    0.000
 RMSDP=3.06D-07 MaxDP=3.10D-06 DE=-2.74D-09 OVMax= 5.74D-06

 Cycle   9  Pass 1  IDiag  1:
 E= -158.472599418451     Delta-E=       -0.000000000181 Rises=F Damp=F
 DIIS: error= 1.06D-06 at cycle   3 NSaved=   3.
 NSaved= 3 IEnMin= 3 EnMin= -158.472599418451     IErMin= 3 ErrMin= 1.06D-06
 ErrMax= 1.06D-06  0.00D+00 EMaxC= 1.00D-01 BMatC= 8.01D-11 BMatP= 2.54D-10
 IDIUse=1 WtCom= 1.00D+00 WtEn= 0.00D+00
 Coeff-Com:  0.122D-01 0.353D+00 0.634D+00
 Coeff:      0.122D-01 0.353D+00 0.634D+00
 Gap=     0.412 Goal=   None    Shift=    0.000
 RMSDP=1.42D-07 MaxDP=1.65D-06 DE=-1.81D-10 OVMax= 2.26D-06

 Cycle  10  Pass 1  IDiag  1:
 E= -158.472599418528     Delta-E=       -0.000000000077 Rises=F Damp=F
 DIIS: error= 3.23D-07 at cycle   4 NSaved=   4.
 NSaved= 4 IEnMin= 4 EnMin= -158.472599418528     IErMin= 4 ErrMin= 3.23D-07
 ErrMax= 3.23D-07  0.00D+00 EMaxC= 1.00D-01 BMatC= 6.04D-12 BMatP= 8.01D-11
 IDIUse=1 WtCom= 1.00D+00 WtEn= 0.00D+00
 Coeff-Com: -0.990D-02 0.930D-01 0.285D+00 0.632D+00
 Coeff:     -0.990D-02 0.930D-01 0.285D+00 0.632D+00
 Gap=     0.412 Goal=   None    Shift=    0.000
 RMSDP=3.34D-08 MaxDP=4.24D-07 DE=-7.74D-11 OVMax= 5.41D-07

 Cycle  11  Pass 1  IDiag  1:
 E= -158.472599418537     Delta-E=       -0.000000000009 Rises=F Damp=F
 DIIS: error= 2.02D-08 at cycle   5 NSaved=   5.
 NSaved= 5 IEnMin= 5 EnMin= -158.472599418537     IErMin= 5 ErrMin= 2.02D-08
 ErrMax= 2.02D-08  0.00D+00 EMaxC= 1.00D-01 BMatC= 4.00D-14 BMatP= 6.04D-12
 IDIUse=1 WtCom= 1.00D+00 WtEn= 0.00D+00
 Coeff-Com: -0.308D-02 0.240D-01 0.811D-01 0.199D+00 0.699D+00
 Coeff:     -0.308D-02 0.240D-01 0.811D-01 0.199D+00 0.699D+00
 Gap=     0.412 Goal=   None    Shift=    0.000
 RMSDP=2.96D-09 MaxDP=4.48D-08 DE=-8.58D-12 OVMax= 6.64D-08

 SCF Done:  E(RB3LYP) =  -158.472599419     A.U. after   11 cycles
            NFock= 11  Conv=0.30D-08     -V/T= 2.0106
 KE= 1.568118669652D+02 PE=-6.259518066725D+02 EE= 1.803909848115D+02
 Leave Link  502 at Wed Mar 30 17:48:58 2016, MaxMem=  2147483648 cpu:        12.5
 (Enter /vol-th/home/you/softwares/gaussian/g09D01/g09/l601.exe)
 Copying SCF densities to generalized density rwf, IOpCl= 0 IROHF=0.

 **********************************************************************

            Population analysis using the SCF density.

 **********************************************************************

 Orbital symmetries:
       Occupied  (AG) (BU) (BU) (AG) (AG) (BU) (AG) (BU) (AU) (AG)
                 (BU) (BG) (BU) (AU) (AG) (BG) (AG)
       Virtual   (AG) (BU) (AU) (BU) (AG) (BU) (AG) (BG) (BG) (AU)
                 (BU) (AG) (BU) (BU) (AG) (AG) (AU) (BG) (BU) (AU)
                 (AG) (BU) (BU) (BG) (AG) (AU) (AG) (BU) (BG) (AU)
                 (AG) (BU) (BU) (AG) (AG) (BG) (BU) (AU) (AG) (BU)
                 (AG) (BU) (BG) (BU) (AG) (AU) (AG) (BU) (BG) (AG)
                 (BG) (AU) (BU) (BG) (AU) (AG) (BU) (AG) (BU) (AG)
                 (BU) (AG) (BU)
 The electronic state is 1-AG.
 Alpha  occ. eigenvalues --  -10.17563 -10.17542 -10.16979 -10.16978  -0.78784
 Alpha  occ. eigenvalues --   -0.71822  -0.62555  -0.57160  -0.46328  -0.42101
 Alpha  occ. eigenvalues --   -0.41366  -0.40632  -0.36431  -0.34674  -0.32880
 Alpha  occ. eigenvalues --   -0.31932  -0.31747
 Alpha virt. eigenvalues --    0.09486   0.12092   0.13540   0.14556   0.17112
 Alpha virt. eigenvalues --    0.18425   0.18516   0.18775   0.19877   0.19924
 Alpha virt. eigenvalues --    0.24810   0.25717   0.26300   0.49826   0.50458
 Alpha virt. eigenvalues --    0.55533   0.55588   0.55665   0.62320   0.65392
 Alpha virt. eigenvalues --    0.65521   0.69796   0.76396   0.79355   0.85953
 Alpha virt. eigenvalues --    0.86048   0.89372   0.90601   0.91450   0.92401
 Alpha virt. eigenvalues --    0.92766   0.95373   0.96719   0.98992   1.01824
 Alpha virt. eigenvalues --    1.02431   1.36635   1.43429   1.44840   1.46596
 Alpha virt. eigenvalues --    1.62552   1.66823   1.84448   1.88352   1.90344
 Alpha virt. eigenvalues --    1.96199   1.96343   2.01446   2.06736   2.16039
 Alpha virt. eigenvalues --    2.25822   2.26001   2.29608   2.38772   2.40202
 Alpha virt. eigenvalues --    2.40474   2.54771   2.67695   2.74723   4.12915
 Alpha virt. eigenvalues --    4.23979   4.36142   4.51013
          Condensed to atoms (all electrons):
               1          2          3          4          5          6
     1  C    5.061096   0.377654   0.377654   0.371818   0.375409  -0.038384
     2  H    0.377654   0.580095  -0.032946  -0.031338  -0.035031   0.005312
     3  H    0.377654  -0.032946   0.580095  -0.031338  -0.035031  -0.004547
     4  H    0.371818  -0.031338  -0.031338   0.578783  -0.027519  -0.002747
     5  C    0.375409  -0.035031  -0.035031  -0.027519   4.942992   0.376940
     6  H   -0.038384   0.005312  -0.004547  -0.002747   0.376940   0.614092
     7  H   -0.038384  -0.004547   0.005312  -0.002747   0.376940  -0.040467
     8  C   -0.043811  -0.004684  -0.004684   0.004290   0.396826  -0.041377
     9  H   -0.003038  -0.000420   0.005078  -0.000038  -0.041377  -0.005652
    10  H   -0.003038   0.005078  -0.000420  -0.000038  -0.041377   0.006094
    11  C    0.004119   0.000038   0.000038  -0.000158  -0.043811  -0.003038
    12  H    0.000038   0.000001   0.000007   0.000001  -0.004684  -0.000420
    13  H   -0.000158   0.000001   0.000001   0.000002   0.004290  -0.000038
    14  H    0.000038   0.000007   0.000001   0.000001  -0.004684   0.005078
               7          8          9         10         11         12
     1  C   -0.038384  -0.043811  -0.003038  -0.003038   0.004119   0.000038
     2  H   -0.004547  -0.004684  -0.000420   0.005078   0.000038   0.000001
     3  H    0.005312  -0.004684   0.005078  -0.000420   0.000038   0.000007
     4  H   -0.002747   0.004290  -0.000038  -0.000038  -0.000158   0.000001
     5  C    0.376940   0.396826  -0.041377  -0.041377  -0.043811  -0.004684
     6  H   -0.040467  -0.041377  -0.005652   0.006094  -0.003038  -0.000420
     7  H    0.614092  -0.041377   0.006094  -0.005652  -0.003038   0.005078
     8  C   -0.041377   4.942992   0.376940   0.376940   0.375409  -0.035031
     9  H    0.006094   0.376940   0.614092  -0.040467  -0.038384   0.005312
    10  H   -0.005652   0.376940  -0.040467   0.614092  -0.038384  -0.004547
    11  C   -0.003038   0.375409  -0.038384  -0.038384   5.061096   0.377654
    12  H    0.005078  -0.035031   0.005312  -0.004547   0.377654   0.580095
    13  H   -0.000038  -0.027519  -0.002747  -0.002747   0.371818  -0.031338
    14  H   -0.000420  -0.035031  -0.004547   0.005312   0.377654  -0.032946
              13         14
     1  C   -0.000158   0.000038
     2  H    0.000001   0.000007
     3  H    0.000001   0.000001
     4  H    0.000002   0.000001
     5  C    0.004290  -0.004684
     6  H   -0.000038   0.005078
     7  H   -0.000038  -0.000420
     8  C   -0.027519  -0.035031
     9  H   -0.002747  -0.004547
    10  H   -0.002747   0.005312
    11  C    0.371818   0.377654
    12  H   -0.031338  -0.032946
    13  H    0.578783  -0.031338
    14  H   -0.031338   0.580095
 Mulliken charges:
               1
     1  C   -0.441013
     2  H    0.140781
     3  H    0.140781
     4  H    0.141027
     5  C   -0.239882
     6  H    0.129153
     7  H    0.129153
     8  C   -0.239882
     9  H    0.129153
    10  H    0.129153
    11  C   -0.441013
    12  H    0.140781
    13  H    0.141027
    14  H    0.140781
 Sum of Mulliken charges =   0.00000
 Mulliken charges with hydrogens summed into heavy atoms:
               1
     1  C   -0.018424
     5  C    0.018424
     8  C    0.018424
    11  C   -0.018424
 Electronic spatial extent (au):  <R**2>=            425.8274
 Charge=              0.0000 electrons
 Dipole moment (field-independent basis, Debye):
    X=              0.0000    Y=              0.0000    Z=              0.0000  Tot=              0.0000
 Quadrupole moment (field-independent basis, Debye-Ang):
   XX=            -28.1445   YY=            -28.8986   ZZ=            -27.7407
   XY=             -0.0558   XZ=              0.0000   YZ=              0.0000
 Traceless Quadrupole moment (field-independent basis, Debye-Ang):
   XX=              0.1168   YY=             -0.6373   ZZ=              0.5205
   XY=             -0.0558   XZ=              0.0000   YZ=              0.0000
 Octapole moment (field-independent basis, Debye-Ang**2):
  XXX=              0.0000  YYY=              0.0000  ZZZ=              0.0000  XYY=              0.0000
  XXY=              0.0000  XXZ=              0.0000  XZZ=              0.0000  YZZ=              0.0000
  YYZ=              0.0000  XYZ=              0.0000
 Hexadecapole moment (field-independent basis, Debye-Ang**3):
 XXXX=           -145.5257 YYYY=           -393.6883 ZZZZ=            -56.3045 XXXY=            -63.7640
 XXXZ=              0.0000 YYYX=            -68.8806 YYYZ=              0.0000 ZZZX=              0.0000
 ZZZY=              0.0000 XXYY=            -86.7419 XXZZ=            -34.0195 YYZZ=            -71.6301
 XXYZ=              0.0000 YYXZ=              0.0000 ZZXY=            -24.3636
 N-N= 1.302763554772D+02 E-N=-6.259518066649D+02  KE= 1.568118669652D+02
 Symmetry AG   KE= 7.595807371136D+01
 Symmetry BG   KE= 4.003617918101D+00
 Symmetry AU   KE= 3.826475979757D+00
 Symmetry BU   KE= 7.302369935602D+01
 No NMR shielding tensors so no spin-rotation constants.
 Leave Link  601 at Wed Mar 30 17:48:58 2016, MaxMem=  2147483648 cpu:         1.5
 (Enter /vol-th/home/you/softwares/gaussian/g09D01/g09/l701.exe)
 Compute integral first derivatives.
 ... and contract with generalized density number  0.
 R6Disp: Adding Grimme-D3(BJ) dispersion energy 1st derivatives to the gradient.
 Leave Link  701 at Wed Mar 30 17:48:58 2016, MaxMem=  2147483648 cpu:         1.6
 (Enter /vol-th/home/you/softwares/gaussian/g09D01/g09/l702.exe)
 L702 exits ... SP integral derivatives will be done elsewhere.
 Leave Link  702 at Wed Mar 30 17:48:58 2016, MaxMem=  2147483648 cpu:         0.3
 (Enter /vol-th/home/you/softwares/gaussian/g09D01/g09/l703.exe)
 Compute integral first derivatives, UseDBF=F ICtDFT=           0.
 Integral derivatives from FoFJK, PRISM(SPDF).
 Calling FoFJK, ICntrl=      2127 FMM=F ISym2X=1 I1Cent= 0 IOpClX= 0 NMat=1 NMatS=1 NMatT=0.
 FoFJK:  IHMeth= 1 ICntrl=    2127 DoSepK=F KAlg= 0 I1Cent=   0 FoldK=F
 IRaf=         0 NMat=   1 IRICut=       1 DoRegI=T DoRafI=F ISym2E= 1.
 FoFCou: FMM=F IPFlag=           0 FMFlag=      100000 FMFlg1=         800
         NFxFlg=           0 DoJE=F BraDBF=F KetDBF=F FulRan=T
         wScrn=  0.000000 ICntrl=    2127 IOpCl=  0 I1Cent=           0 NGrid=           0
         NMat0=    1 NMatS0=      1 NMatT0=    0 NMatD0=    1 NMtDS0=    0 NMtDT0=    0
 Petite list used in FoFCou.
 Leave Link  703 at Wed Mar 30 17:48:59 2016, MaxMem=  2147483648 cpu:         4.0
 (Enter /vol-th/home/you/softwares/gaussian/g09D01/g09/l716.exe)
 Dipole        = 3.33066907D-16 6.21724894D-15 0.00000000D+00
 ***** Axes restored to original set *****
 -------------------------------------------------------------------
 Center     Atomic                   Forces (Hartrees/Bohr)
 Number     Number              X              Y              Z
 -------------------------------------------------------------------
      1        6          -0.000048271   -0.000032619    0.000000000
      2        1           0.000021812    0.000032603    0.000010258
      3        1           0.000021812    0.000032603   -0.000010258
      4        1          -0.000012786   -0.000002385    0.000000000
      5        6           0.000015895    0.000039930    0.000000000
      6        1           0.000002660   -0.000013127   -0.000015352
      7        1           0.000002660   -0.000013127    0.000015352
      8        6          -0.000015895   -0.000039930    0.000000000
      9        1          -0.000002660    0.000013127   -0.000015352
     10        1          -0.000002660    0.000013127    0.000015352
     11        6           0.000048271    0.000032619    0.000000000
     12        1          -0.000021812   -0.000032603    0.000010258
     13        1           0.000012786    0.000002385    0.000000000
     14        1          -0.000021812   -0.000032603   -0.000010258
 -------------------------------------------------------------------
 Cartesian Forces:  Max     0.000048271 RMS     0.000021301
 Leave Link  716 at Wed Mar 30 17:48:59 2016, MaxMem=  2147483648 cpu:         0.3
 (Enter /vol-th/home/you/softwares/gaussian/g09D01/g09/l103.exe)

 GradGradGradGradGradGradGradGradGradGradGradGradGradGradGradGradGradGrad
 Berny optimization.
 FormGI is forming the generalized inverse of G from B-inverse, IUseBI=4.
 Internal  Forces:  Max     0.000041325 RMS     0.000018102
 Search for a local minimum.
 Step number   1 out of a maximum of   74
 All quantities printed in internal units (Hartrees-Bohrs-Radians)
 RMS Force = .18102D-04 SwitMx=.10000D-02 MixMth= 2
 Mixed Optimization -- En-DIIS/RFO-DIIS
 Second derivative matrix not updated -- first step.
 ITU=  0
     Eigenvalues ---    0.00340   0.00363   0.00363   0.03464   0.03464
     Eigenvalues ---    0.04802   0.04802   0.05442   0.05442   0.05519
     Eigenvalues ---    0.05519   0.08417   0.08417   0.12266   0.12266
     Eigenvalues ---    0.16000   0.16000   0.16000   0.16000   0.16000
     Eigenvalues ---    0.16000   0.21896   0.21896   0.29221   0.29381
     Eigenvalues ---    0.29381   0.33770   0.33770   0.33770   0.33770
     Eigenvalues ---    0.34028   0.34028   0.34028   0.34028   0.34153
     Eigenvalues ---    0.34153
 RFO step:  Lambda=-1.60876488D-07 EMin= 3.40045854D-03
 Linear search not attempted -- first point.
 Iteration  1 RMS(Cart)=  0.00027720 RMS(Int)=  0.00000006
 Iteration  2 RMS(Cart)=  0.00000004 RMS(Int)=  0.00000004
 ITry= 1 IFail=0 DXMaxC= 9.57D-04 DCOld= 1.00D+10 DXMaxT= 3.00D-01 DXLimC= 3.00D+00 Rises=F
 ClnCor:  largest displacement from symmetrization is 9.57D-09 for atom    10.
 Variable       Old X    -DE/DX   Delta X   Delta X   Delta X     New X
                                 (Linear)    (Quad)   (Total)
    R1        2.07283   0.00001   0.00000   0.00003   0.00003   2.07286
    R2        2.07283   0.00001   0.00000   0.00003   0.00003   2.07286
    R3        2.07073  -0.00001   0.00000  -0.00004  -0.00004   2.07069
    R4        2.89215   0.00003   0.00000   0.00010   0.00010   2.89225
    R5        2.07720   0.00002   0.00000   0.00005   0.00005   2.07725
    R6        2.07720   0.00002   0.00000   0.00005   0.00005   2.07725
    R7        2.89543   0.00002   0.00000   0.00007   0.00007   2.89550
    R8        2.07720   0.00002   0.00000   0.00005   0.00005   2.07725
    R9        2.07720   0.00002   0.00000   0.00005   0.00005   2.07725
   R10        2.89215   0.00003   0.00000   0.00010   0.00010   2.89225
   R11        2.07283   0.00001   0.00000   0.00003   0.00003   2.07286
   R12        2.07073  -0.00001   0.00000  -0.00004  -0.00004   2.07069
   R13        2.07283   0.00001   0.00000   0.00003   0.00003   2.07286
    A1        1.87592  -0.00002   0.00000   0.00009   0.00009   1.87601
    A2        1.88067  -0.00002   0.00000  -0.00025  -0.00025   1.88041
    A3        1.93801   0.00004   0.00000   0.00031   0.00031   1.93832
    A4        1.88067  -0.00002   0.00000  -0.00025  -0.00025   1.88041
    A5        1.93801   0.00004   0.00000   0.00031   0.00031   1.93832
    A6        1.94760  -0.00002   0.00000  -0.00023  -0.00023   1.94736
    A7        1.91295   0.00000   0.00000   0.00003   0.00003   1.91297
    A8        1.91295   0.00000   0.00000   0.00003   0.00003   1.91297
    A9        1.97331   0.00003   0.00000   0.00016   0.00016   1.97347
   A10        1.85083   0.00001   0.00000  -0.00001  -0.00001   1.85081
   A11        1.90488  -0.00002   0.00000  -0.00011  -0.00011   1.90478
   A12        1.90488  -0.00002   0.00000  -0.00011  -0.00011   1.90478
   A13        1.90488  -0.00002   0.00000  -0.00011  -0.00011   1.90478
   A14        1.90488  -0.00002   0.00000  -0.00011  -0.00011   1.90478
   A15        1.97331   0.00003   0.00000   0.00016   0.00016   1.97347
   A16        1.85083   0.00001   0.00000  -0.00001  -0.00001   1.85081
   A17        1.91295   0.00000   0.00000   0.00003   0.00003   1.91297
   A18        1.91295   0.00000   0.00000   0.00003   0.00003   1.91297
   A19        1.93801   0.00004   0.00000   0.00031   0.00031   1.93832
   A20        1.94760  -0.00002   0.00000  -0.00023  -0.00023   1.94736
   A21        1.93801   0.00004   0.00000   0.00031   0.00031   1.93832
   A22        1.88067  -0.00002   0.00000  -0.00025  -0.00025   1.88041
   A23        1.87592  -0.00002   0.00000   0.00009   0.00009   1.87601
   A24        1.88067  -0.00002   0.00000  -0.00025  -0.00025   1.88041
    D1       -3.11078   0.00001   0.00000   0.00025   0.00025  -3.11052
    D2       -1.08628   0.00002   0.00000   0.00027   0.00027  -1.08601
    D3        1.04306   0.00001   0.00000   0.00026   0.00026   1.04333
    D4        1.08628  -0.00002   0.00000  -0.00027  -0.00027   1.08601
    D5        3.11078  -0.00001   0.00000  -0.00025  -0.00025   3.11052
    D6       -1.04306  -0.00001   0.00000  -0.00026  -0.00026  -1.04333
    D7       -1.01225   0.00000   0.00000  -0.00001  -0.00001  -1.01226
    D8        1.01225   0.00000   0.00000   0.00001   0.00001   1.01226
    D9        3.14159   0.00000   0.00000   0.00000   0.00000   3.14159
   D10        1.00773  -0.00001   0.00000  -0.00007  -0.00007   1.00767
   D11       -1.00773   0.00001   0.00000   0.00007   0.00007  -1.00767
   D12        3.14159   0.00000   0.00000   0.00000   0.00000   3.14159
   D13       -1.12613  -0.00001   0.00000  -0.00013  -0.00013  -1.12626
   D14        3.14159   0.00000   0.00000   0.00000   0.00000   3.14159
   D15        1.00773  -0.00001   0.00000  -0.00007  -0.00007   1.00767
   D16        3.14159   0.00000   0.00000   0.00000   0.00000   3.14159
   D17        1.12613   0.00001   0.00000   0.00013   0.00013   1.12626
   D18       -1.00773   0.00001   0.00000   0.00007   0.00007  -1.00767
   D19        1.04306   0.00001   0.00000   0.00026   0.00026   1.04333
   D20        3.14159   0.00000   0.00000   0.00000   0.00000   3.14159
   D21       -1.04306  -0.00001   0.00000  -0.00026  -0.00026  -1.04333
   D22       -3.11078   0.00001   0.00000   0.00025   0.00025  -3.11052
   D23       -1.01225   0.00000   0.00000  -0.00001  -0.00001  -1.01226
   D24        1.08628  -0.00002   0.00000  -0.00027  -0.00027   1.08601
   D25       -1.08628   0.00002   0.00000   0.00027   0.00027  -1.08601
   D26        1.01225   0.00000   0.00000   0.00001   0.00001   1.01226
   D27        3.11078  -0.00001   0.00000  -0.00025  -0.00025   3.11052
         Item               Value     Threshold  Converged?
 Maximum Force            0.000041     0.000015     NO 
 RMS     Force            0.000018     0.000010     NO 
 Maximum Displacement     0.000957     0.000060     NO 
 RMS     Displacement     0.000277     0.000040     NO 
 Predicted change in Energy=-8.045909D-08
 Lowest energy point so far.  Saving SCF results.
 GradGradGradGradGradGradGradGradGradGradGradGradGradGradGradGradGradGrad

 Leave Link  103 at Wed Mar 30 17:48:59 2016, MaxMem=  2147483648 cpu:         0.3
 (Enter /vol-th/home/you/softwares/gaussian/g09D01/g09/l202.exe)
                          Input orientation:                          
 ---------------------------------------------------------------------
 Center     Atomic      Atomic             Coordinates (Angstroms)
 Number     Number       Type             X           Y           Z
 ---------------------------------------------------------------------
      1          6           0        0.704790    1.830759    0.000000
      2          1           0        0.189522    2.224871    0.884524
      3          1           0        0.189522    2.224871   -0.884524
      4          1           0        1.723766    2.233733    0.000000
      5          6           0        0.704832    0.300244    0.000000
      6          1           0        1.253608   -0.068578   -0.878141
      7          1           0        1.253608   -0.068578    0.878141
      8          6           0       -0.704832   -0.300244    0.000000
      9          1           0       -1.253608    0.068578   -0.878141
     10          1           0       -1.253608    0.068578    0.878141
     11          6           0       -0.704790   -1.830759    0.000000
     12          1           0       -0.189522   -2.224871    0.884524
     13          1           0       -1.723766   -2.233733    0.000000
     14          1           0       -0.189522   -2.224871   -0.884524
 ---------------------------------------------------------------------
                    Distance matrix (angstroms):
                    1          2          3          4          5
     1  C    0.000000
     2  H    1.096908   0.000000
     3  H    1.096908   1.769048   0.000000
     4  H    1.095764   1.770979   1.770979   0.000000
     5  C    1.530515   2.179934   2.179934   2.185545   0.000000
     6  H    2.163288   3.082073   2.528285   2.508548   1.099235
     7  H    2.163288   2.528285   3.082073   2.508548   1.099235
     8  C    2.555036   2.821074   2.821074   3.509861   1.532233
     9  H    2.777002   3.136752   2.594661   3.784677   2.158770
    10  H    2.777002   2.594661   3.136752   3.784677   2.158770
    11  C    3.923473   4.246212   4.246212   4.734763   2.555036
    12  H    4.246212   4.465856   4.803478   4.931754   2.821074
    13  H    4.734763   4.931754   4.931754   5.643024   3.509861
    14  H    4.246212   4.803478   4.465856   4.931754   2.821074
                    6          7          8          9         10
     6  H    0.000000
     7  H    1.756282   0.000000
     8  C    2.158770   2.158770   0.000000
     9  H    2.510965   3.064224   1.099235   0.000000
    10  H    3.064224   2.510965   1.099235   1.756282   0.000000
    11  C    2.777002   2.777002   1.530515   2.163288   2.163288
    12  H    3.136752   2.594661   2.179934   3.082073   2.528285
    13  H    3.784677   3.784677   2.185545   2.508548   2.508548
    14  H    2.594661   3.136752   2.179934   2.528285   3.082073
                   11         12         13         14
    11  C    0.000000
    12  H    1.096908   0.000000
    13  H    1.095764   1.770979   0.000000
    14  H    1.096908   1.769048   1.770979   0.000000
 Stoichiometry    C4H10
 Framework group  C2H[SGH(C4H2),X(H8)]
 Deg. of freedom    11
 Full point group                 C2H     NOp   4
 RotChk:  IX=0 Diff= 3.82D-05
 Largest Abelian subgroup         C2H     NOp   4
 Largest concise Abelian subgroup C2H     NOp   4
                         Standard orientation:                         
 ---------------------------------------------------------------------
 Center     Atomic      Atomic             Coordinates (Angstroms)
 Number     Number       Type             X           Y           Z
 ---------------------------------------------------------------------
      1          6           0        0.704840    1.830740    0.000000
      2          1           0        0.189582    2.224866    0.884524
      3          1           0        0.189582    2.224866   -0.884524
      4          1           0        1.723826    2.233686    0.000000
      5          6           0        0.704840    0.300225    0.000000
      6          1           0        1.253606   -0.068612   -0.878141
      7          1           0        1.253606   -0.068612    0.878141
      8          6           0       -0.704840   -0.300225    0.000000
      9          1           0       -1.253606    0.068612   -0.878141
     10          1           0       -1.253606    0.068612    0.878141
     11          6           0       -0.704840   -1.830740    0.000000
     12          1           0       -0.189582   -2.224866    0.884524
     13          1           0       -1.723826   -2.233686    0.000000
     14          1           0       -0.189582   -2.224866   -0.884524
 ---------------------------------------------------------------------
 Rotational constants (GHZ):     23.3835650      3.6134196      3.3929688
 Leave Link  202 at Wed Mar 30 17:48:59 2016, MaxMem=  2147483648 cpu:         0.0
 (Enter /vol-th/home/you/softwares/gaussian/g09D01/g09/l301.exe)
 Standard basis: 6-31G(d) (6D, 7F)
 Ernie: Thresh=  0.10000D-02 Tol=  0.10000D-05 Strict=F.
 There are    28 symmetry adapted cartesian basis functions of AG  symmetry.
 There are    12 symmetry adapted cartesian basis functions of BG  symmetry.
 There are    12 symmetry adapted cartesian basis functions of AU  symmetry.
 There are    28 symmetry adapted cartesian basis functions of BU  symmetry.
 There are    28 symmetry adapted basis functions of AG  symmetry.
 There are    12 symmetry adapted basis functions of BG  symmetry.
 There are    12 symmetry adapted basis functions of AU  symmetry.
 There are    28 symmetry adapted basis functions of BU  symmetry.
    80 basis functions,   152 primitive gaussians,    80 cartesian basis functions
    17 alpha electrons       17 beta electrons
       nuclear repulsion energy       130.2847801305 Hartrees.
 IExCor=  402 DFT=T Ex+Corr=B3LYP ExCW=0 ScaHFX=  0.200000
 ScaDFX=  0.800000  0.720000  1.000000  0.810000 ScalE2=  1.000000  1.000000
 IRadAn=      5 IRanWt=     -1 IRanGd=            0 ICorTp=0 IEmpDi=141
 NAtoms=   14 NActive=   14 NUniq=    5 SFac= 4.00D+00 NAtFMM=   60 NAOKFM=F Big=F
 Integral buffers will be    131072 words long.
 Raffenetti 2 integral format.
 Two-electron integral symmetry is turned on.
 R6Disp:  Grimme-D3(BJ) Dispersion energy=       -0.0145691518 Hartrees.
 Nuclear repulsion after empirical dispersion term =      130.2702109787 Hartrees.
 Leave Link  301 at Wed Mar 30 17:48:59 2016, MaxMem=  2147483648 cpu:         0.6
 (Enter /vol-th/home/you/softwares/gaussian/g09D01/g09/l302.exe)
 NPDir=0 NMtPBC=     1 NCelOv=     1 NCel=       1 NClECP=     1 NCelD=      1
         NCelK=      1 NCelE2=     1 NClLst=     1 CellRange=     0.0.
 One-electron integrals computed using PRISM.
 One-electron integral symmetry used in STVInt
 NBasis=    80 RedAO= T EigKep=  4.65D-03  NBF=    28    12    12    28
 NBsUse=    80 1.00D-06 EigRej= -1.00D+00 NBFU=    28    12    12    28
 Precomputing XC quadrature grid using
 IXCGrd= 4 IRadAn=           5 IRanWt=          -1 IRanGd=           0 AccXCQ= 0.00D+00.
 Generated NRdTot=       0 NPtTot=           0 NUsed=           0 NTot=          32
 NSgBfM=    80    80    80    80    80 MxSgAt=    14 MxSgA2=    14.
 Leave Link  302 at Wed Mar 30 17:48:59 2016, MaxMem=  2147483648 cpu:         2.3
 (Enter /vol-th/home/you/softwares/gaussian/g09D01/g09/l303.exe)
 DipDrv:  MaxL=1.
 Leave Link  303 at Wed Mar 30 17:48:59 2016, MaxMem=  2147483648 cpu:         0.3
 (Enter /vol-th/home/you/softwares/gaussian/g09D01/g09/l401.exe)
 Initial guess from the checkpoint file:  "/vol-th/home/you/scratch/Gau-12327.chk"
 B after Tr=     0.000000    0.000000    0.000000
         Rot=    1.000000    0.000000    0.000000   -0.000007 Ang=   0.00 deg.
 Guess basis will be translated and rotated to current coordinates.
 JPrj=2 DoOrth=T DoCkMO=T.
 Initial guess orbital symmetries:
       Occupied  (AG) (BU) (BU) (AG) (AG) (BU) (AG) (BU) (AU) (AG)
                 (BU) (BG) (BU) (AU) (AG) (BG) (AG)
       Virtual   (AG) (AG) (AG) (AG) (AG) (AG) (AG) (AG) (AG) (AG)
                 (AG) (AG) (AG) (AG) (AG) (AG) (AG) (AG) (AG) (AG)
                 (AG) (BG) (BG) (BG) (BG) (BG) (BG) (BG) (BG) (BG)
                 (BG) (AU) (AU) (AU) (AU) (AU) (AU) (AU) (AU) (AU)
                 (AU) (BU) (BU) (BU) (BU) (BU) (BU) (BU) (BU) (BU)
                 (BU) (BU) (BU) (BU) (BU) (BU) (BU) (BU) (BU) (BU)
                 (BU) (BU) (BU)
 The electronic state of the initial guess is 1-AG.
 Leave Link  401 at Wed Mar 30 17:48:59 2016, MaxMem=  2147483648 cpu:         2.2
 (Enter /vol-th/home/you/softwares/gaussian/g09D01/g09/l502.exe)
 Closed shell SCF:
 Using DIIS extrapolation, IDIIS=  1040.
 Integral symmetry usage will be decided dynamically.
 Keep R1 ints in memory in symmetry-blocked form, NReq=6650374.
 IVT=       39694 IEndB=       39694 NGot=  2147483648 MDV=  2146083775
 LenX=  2146083775 LenY=  2146076934
 Requested convergence on RMS density matrix=1.00D-08 within 128 cycles.
 Requested convergence on MAX density matrix=1.00D-06.
 Requested convergence on             energy=1.00D-06.
 No special actions if energy rises.
 FoFCou: FMM=F IPFlag=           0 FMFlag=           0 FMFlg1=           0
         NFxFlg=           0 DoJE=F BraDBF=F KetDBF=F FulRan=T
         wScrn=  0.000000 ICntrl=     600 IOpCl=  0 I1Cent=           0 NGrid=           0
         NMat0=    1 NMatS0=   3240 NMatT0=    0 NMatD0=    1 NMtDS0=    0 NMtDT0=    0
 Petite list used in FoFCou.

 Cycle   1  Pass 1  IDiag  1:
 E= -158.472599449631    
 DIIS: error= 1.92D-05 at cycle   1 NSaved=   1.
 NSaved= 1 IEnMin= 1 EnMin= -158.472599449631     IErMin= 1 ErrMin= 1.92D-05
 ErrMax= 1.92D-05  0.00D+00 EMaxC= 1.00D-01 BMatC= 3.15D-08 BMatP= 3.15D-08
 IDIUse=1 WtCom= 1.00D+00 WtEn= 0.00D+00
 Coeff-Com:  0.100D+01
 Coeff:      0.100D+01
 Gap=     0.896 Goal=   None    Shift=    0.000
 RMSDP=2.89D-06 MaxDP=2.96D-05              OVMax= 6.64D-05

 Cycle   2  Pass 1  IDiag  1:
 E= -158.472599500117     Delta-E=       -0.000000050486 Rises=F Damp=F
 DIIS: error= 6.31D-06 at cycle   2 NSaved=   2.
 NSaved= 2 IEnMin= 2 EnMin= -158.472599500117     IErMin= 2 ErrMin= 6.31D-06
 ErrMax= 6.31D-06  0.00D+00 EMaxC= 1.00D-01 BMatC= 1.50D-09 BMatP= 3.15D-08
 IDIUse=1 WtCom= 1.00D+00 WtEn= 0.00D+00
 Coeff-Com:  0.551D-01 0.945D+00
 Coeff:      0.551D-01 0.945D+00
 Gap=     0.412 Goal=   None    Shift=    0.000
 RMSDP=1.04D-06 MaxDP=1.09D-05 DE=-5.05D-08 OVMax= 2.11D-05

 Cycle   3  Pass 1  IDiag  1:
 E= -158.472599500550     Delta-E=       -0.000000000433 Rises=F Damp=F
 DIIS: error= 4.71D-06 at cycle   3 NSaved=   3.
 NSaved= 3 IEnMin= 3 EnMin= -158.472599500550     IErMin= 3 ErrMin= 4.71D-06
 ErrMax= 4.71D-06  0.00D+00 EMaxC= 1.00D-01 BMatC= 1.36D-09 BMatP= 1.50D-09
 IDIUse=1 WtCom= 1.00D+00 WtEn= 0.00D+00
 Coeff-Com: -0.209D-01 0.489D+00 0.532D+00
 Coeff:     -0.209D-01 0.489D+00 0.532D+00
 Gap=     0.412 Goal=   None    Shift=    0.000
 RMSDP=5.02D-07 MaxDP=7.12D-06 DE=-4.33D-10 OVMax= 8.70D-06

 Cycle   4  Pass 1  IDiag  1:
 E= -158.472599501924     Delta-E=       -0.000000001374 Rises=F Damp=F
 DIIS: error= 6.45D-07 at cycle   4 NSaved=   4.
 NSaved= 4 IEnMin= 4 EnMin= -158.472599501924     IErMin= 4 ErrMin= 6.45D-07
 ErrMax= 6.45D-07  0.00D+00 EMaxC= 1.00D-01 BMatC= 2.51D-11 BMatP= 1.36D-09
 IDIUse=1 WtCom= 1.00D+00 WtEn= 0.00D+00
 Coeff-Com: -0.115D-01 0.102D+00 0.178D+00 0.731D+00
 Coeff:     -0.115D-01 0.102D+00 0.178D+00 0.731D+00
 Gap=     0.412 Goal=   None    Shift=    0.000
 RMSDP=6.58D-08 MaxDP=9.38D-07 DE=-1.37D-09 OVMax= 1.11D-06

 Cycle   5  Pass 1  IDiag  1:
 E= -158.472599501949     Delta-E=       -0.000000000025 Rises=F Damp=F
 DIIS: error= 5.75D-08 at cycle   5 NSaved=   5.
 NSaved= 5 IEnMin= 5 EnMin= -158.472599501949     IErMin= 5 ErrMin= 5.75D-08
 ErrMax= 5.75D-08  0.00D+00 EMaxC= 1.00D-01 BMatC= 2.63D-13 BMatP= 2.51D-11
 IDIUse=1 WtCom= 1.00D+00 WtEn= 0.00D+00
 Coeff-Com: -0.179D-02 0.110D-01 0.262D-01 0.151D+00 0.814D+00
 Coeff:     -0.179D-02 0.110D-01 0.262D-01 0.151D+00 0.814D+00
 Gap=     0.412 Goal=   None    Shift=    0.000
 RMSDP=8.94D-09 MaxDP=1.27D-07 DE=-2.51D-11 OVMax= 1.97D-07

 SCF Done:  E(RB3LYP) =  -158.472599502     A.U. after    5 cycles
            NFock=  5  Conv=0.89D-08     -V/T= 2.0106
 KE= 1.568113897619D+02 PE=-6.259391860514D+02 EE= 1.803849858088D+02
 Leave Link  502 at Wed Mar 30 17:49:00 2016, MaxMem=  2147483648 cpu:         7.7
 (Enter /vol-th/home/you/softwares/gaussian/g09D01/g09/l701.exe)
 Compute integral first derivatives.
 ... and contract with generalized density number  0.
 R6Disp: Adding Grimme-D3(BJ) dispersion energy 1st derivatives to the gradient.
 Leave Link  701 at Wed Mar 30 17:49:00 2016, MaxMem=  2147483648 cpu:         1.6
 (Enter /vol-th/home/you/softwares/gaussian/g09D01/g09/l702.exe)
 L702 exits ... SP integral derivatives will be done elsewhere.
 Leave Link  702 at Wed Mar 30 17:49:00 2016, MaxMem=  2147483648 cpu:         0.3
 (Enter /vol-th/home/you/softwares/gaussian/g09D01/g09/l703.exe)
 Compute integral first derivatives, UseDBF=F ICtDFT=           0.
 Integral derivatives from FoFJK, PRISM(SPDF).
 Calling FoFJK, ICntrl=      2127 FMM=F ISym2X=1 I1Cent= 0 IOpClX= 0 NMat=1 NMatS=1 NMatT=0.
 FoFJK:  IHMeth= 1 ICntrl=    2127 DoSepK=F KAlg= 0 I1Cent=   0 FoldK=F
 IRaf=         0 NMat=   1 IRICut=       1 DoRegI=T DoRafI=F ISym2E= 1.
 FoFCou: FMM=F IPFlag=           0 FMFlag=      100000 FMFlg1=         800
         NFxFlg=           0 DoJE=F BraDBF=F KetDBF=F FulRan=T
         wScrn=  0.000000 ICntrl=    2127 IOpCl=  0 I1Cent=           0 NGrid=           0
         NMat0=    1 NMatS0=      1 NMatT0=    0 NMatD0=    1 NMtDS0=    0 NMtDT0=    0
 Petite list used in FoFCou.
 Leave Link  703 at Wed Mar 30 17:49:01 2016, MaxMem=  2147483648 cpu:         4.0
 (Enter /vol-th/home/you/softwares/gaussian/g09D01/g09/l716.exe)
 Dipole        = 3.21964677D-15-4.44089210D-15 2.22044605D-16
 ***** Axes restored to original set *****
 -------------------------------------------------------------------
 Center     Atomic                   Forces (Hartrees/Bohr)
 Number     Number              X              Y              Z
 -------------------------------------------------------------------
      1        6          -0.000012761   -0.000027273    0.000000000
      2        1           0.000003724    0.000000786   -0.000000481
      3        1           0.000003724    0.000000786    0.000000481
      4        1           0.000009485    0.000002822    0.000000000
      5        6          -0.000000202    0.000019039    0.000000000
      6        1           0.000000944    0.000004311   -0.000000616
      7        1           0.000000944    0.000004311    0.000000616
      8        6           0.000000202   -0.000019039    0.000000000
      9        1          -0.000000944   -0.000004311   -0.000000616
     10        1          -0.000000944   -0.000004311    0.000000616
     11        6           0.000012761    0.000027273    0.000000000
     12        1          -0.000003724   -0.000000786   -0.000000481
     13        1          -0.000009485   -0.000002822    0.000000000
     14        1          -0.000003724   -0.000000786    0.000000481
 -------------------------------------------------------------------
 Cartesian Forces:  Max     0.000027273 RMS     0.000008270
 Leave Link  716 at Wed Mar 30 17:49:01 2016, MaxMem=  2147483648 cpu:         0.3
 (Enter /vol-th/home/you/softwares/gaussian/g09D01/g09/l103.exe)

 GradGradGradGradGradGradGradGradGradGradGradGradGradGradGradGradGradGrad
 Berny optimization.
 Using GEDIIS/GDIIS optimizer.
 FormGI is forming the generalized inverse of G from B-inverse, IUseBI=4.
 Internal  Forces:  Max     0.000022434 RMS     0.000004977
 Search for a local minimum.
 Step number   2 out of a maximum of   74
 All quantities printed in internal units (Hartrees-Bohrs-Radians)
 RMS Force = .49771D-05 SwitMx=.10000D-02 MixMth= 2
 Mixed Optimization -- En-DIIS/RFO-DIIS
 Swapping is turned off.
 Update second derivatives using D2CorX and points    1    2
 DE= -8.34D-08 DEPred=-8.05D-08 R= 1.04D+00
 Trust test= 1.04D+00 RLast= 1.34D-03 DXMaxT set to 3.00D-01
 ITU=  0  0
     Eigenvalues ---    0.00340   0.00363   0.00363   0.03463   0.03463
     Eigenvalues ---    0.04801   0.04801   0.05010   0.05443   0.05443
     Eigenvalues ---    0.05515   0.08418   0.08724   0.12267   0.12267
     Eigenvalues ---    0.15281   0.16000   0.16000   0.16000   0.16000
     Eigenvalues ---    0.16010   0.21264   0.21896   0.29114   0.29381
     Eigenvalues ---    0.31424   0.33756   0.33770   0.33770   0.33770
     Eigenvalues ---    0.34028   0.34028   0.34028   0.34030   0.34153
     Eigenvalues ---    0.35546
 En-DIIS/RFO-DIIS IScMMF=        0 using points:     2    1
 RFO step:  Lambda= 0.00000000D+00.
 NNeg= 0 NP= 2 Switch=  2.50D-03 Rises=F DC=  8.34D-08 SmlDif=  1.00D-05
 RMS Error=  0.1082227394D-04 NUsed= 2 EDIIS=F
 DidBck=F Rises=F RFO-DIIS coefs:    1.03304   -0.03304
 Iteration  1 RMS(Cart)=  0.00004704 RMS(Int)=  0.00000000
 Iteration  2 RMS(Cart)=  0.00000000 RMS(Int)=  0.00000000
 ITry= 1 IFail=0 DXMaxC= 1.48D-04 DCOld= 1.00D+10 DXMaxT= 3.00D-01 DXLimC= 3.00D+00 Rises=F
 ClnCor:  largest displacement from symmetrization is 1.39D-12 for atom     3.
 Variable       Old X    -DE/DX   Delta X   Delta X   Delta X     New X
                                 (Linear)    (Quad)   (Total)
    R1        2.07286   0.00000   0.00000   0.00000   0.00000   2.07285
    R2        2.07286   0.00000   0.00000   0.00000   0.00000   2.07285
    R3        2.07069   0.00001   0.00000   0.00003   0.00003   2.07072
    R4        2.89225  -0.00002   0.00000  -0.00008  -0.00007   2.89218
    R5        2.07725   0.00000   0.00000   0.00000   0.00000   2.07725
    R6        2.07725   0.00000   0.00000   0.00000   0.00000   2.07725
    R7        2.89550   0.00001   0.00000   0.00002   0.00003   2.89553
    R8        2.07725   0.00000   0.00000   0.00000   0.00000   2.07725
    R9        2.07725   0.00000   0.00000   0.00000   0.00000   2.07725
   R10        2.89225  -0.00002   0.00000  -0.00008  -0.00007   2.89218
   R11        2.07286   0.00000   0.00000   0.00000   0.00000   2.07285
   R12        2.07069   0.00001   0.00000   0.00003   0.00003   2.07072
   R13        2.07286   0.00000   0.00000   0.00000   0.00000   2.07285
    A1        1.87601   0.00000   0.00000   0.00002   0.00003   1.87603
    A2        1.88041   0.00000  -0.00001  -0.00002  -0.00003   1.88038
    A3        1.93832   0.00000   0.00001   0.00003   0.00004   1.93836
    A4        1.88041   0.00000  -0.00001  -0.00002  -0.00003   1.88038
    A5        1.93832   0.00000   0.00001   0.00003   0.00004   1.93836
    A6        1.94736   0.00000  -0.00001  -0.00003  -0.00004   1.94733
    A7        1.91297  -0.00001   0.00000  -0.00004  -0.00004   1.91293
    A8        1.91297  -0.00001   0.00000  -0.00004  -0.00004   1.91293
    A9        1.97347   0.00001   0.00001   0.00004   0.00004   1.97351
   A10        1.85081   0.00000   0.00000   0.00001   0.00001   1.85083
   A11        1.90478   0.00000   0.00000   0.00002   0.00001   1.90479
   A12        1.90478   0.00000   0.00000   0.00002   0.00001   1.90479
   A13        1.90478   0.00000   0.00000   0.00002   0.00001   1.90479
   A14        1.90478   0.00000   0.00000   0.00002   0.00001   1.90479
   A15        1.97347   0.00001   0.00001   0.00004   0.00004   1.97351
   A16        1.85081   0.00000   0.00000   0.00001   0.00001   1.85083
   A17        1.91297  -0.00001   0.00000  -0.00004  -0.00004   1.91293
   A18        1.91297  -0.00001   0.00000  -0.00004  -0.00004   1.91293
   A19        1.93832   0.00000   0.00001   0.00003   0.00004   1.93836
   A20        1.94736   0.00000  -0.00001  -0.00003  -0.00004   1.94733
   A21        1.93832   0.00000   0.00001   0.00003   0.00004   1.93836
   A22        1.88041   0.00000  -0.00001  -0.00002  -0.00003   1.88038
   A23        1.87601   0.00000   0.00000   0.00002   0.00003   1.87603
   A24        1.88041   0.00000  -0.00001  -0.00002  -0.00003   1.88038
    D1       -3.11052   0.00000   0.00001   0.00005   0.00006  -3.11047
    D2       -1.08601   0.00000   0.00001   0.00001   0.00002  -1.08599
    D3        1.04333   0.00000   0.00001   0.00003   0.00004   1.04336
    D4        1.08601   0.00000  -0.00001  -0.00001  -0.00002   1.08599
    D5        3.11052   0.00000  -0.00001  -0.00005  -0.00006   3.11047
    D6       -1.04333   0.00000  -0.00001  -0.00003  -0.00004  -1.04336
    D7       -1.01226   0.00000   0.00000   0.00002   0.00002  -1.01224
    D8        1.01226   0.00000   0.00000  -0.00002  -0.00002   1.01224
    D9        3.14159   0.00000   0.00000   0.00000   0.00000   3.14159
   D10        1.00767   0.00000   0.00000   0.00002   0.00002   1.00768
   D11       -1.00767   0.00000   0.00000  -0.00002  -0.00002  -1.00768
   D12        3.14159   0.00000   0.00000   0.00000   0.00000   3.14159
   D13       -1.12626   0.00000   0.00000   0.00003   0.00003  -1.12623
   D14        3.14159   0.00000   0.00000   0.00000   0.00000   3.14159
   D15        1.00767   0.00000   0.00000   0.00002   0.00002   1.00768
   D16        3.14159   0.00000   0.00000   0.00000   0.00000   3.14159
   D17        1.12626   0.00000   0.00000  -0.00003  -0.00003   1.12623
   D18       -1.00767   0.00000   0.00000  -0.00002  -0.00002  -1.00768
   D19        1.04333   0.00000   0.00001   0.00003   0.00004   1.04336
   D20        3.14159   0.00000   0.00000   0.00000   0.00000   3.14159
   D21       -1.04333   0.00000  -0.00001  -0.00003  -0.00004  -1.04336
   D22       -3.11052   0.00000   0.00001   0.00005   0.00006  -3.11047
   D23       -1.01226   0.00000   0.00000   0.00002   0.00002  -1.01224
   D24        1.08601   0.00000  -0.00001  -0.00001  -0.00002   1.08599
   D25       -1.08601   0.00000   0.00001   0.00001   0.00002  -1.08599
   D26        1.01226   0.00000   0.00000  -0.00002  -0.00002   1.01224
   D27        3.11052   0.00000  -0.00001  -0.00005  -0.00006   3.11047
         Item               Value     Threshold  Converged?
 Maximum Force            0.000022     0.000015     NO 
 RMS     Force            0.000005     0.000010     YES
 Maximum Displacement     0.000148     0.000060     NO 
 RMS     Displacement     0.000047     0.000040     NO 
 Predicted change in Energy=-3.747887D-09
 Lowest energy point so far.  Saving SCF results.
 GradGradGradGradGradGradGradGradGradGradGradGradGradGradGradGradGradGrad

 Leave Link  103 at Wed Mar 30 17:49:01 2016, MaxMem=  2147483648 cpu:         0.2
 (Enter /vol-th/home/you/softwares/gaussian/g09D01/g09/l202.exe)
                          Input orientation:                          
 ---------------------------------------------------------------------
 Center     Atomic      Atomic             Coordinates (Angstroms)
 Number     Number       Type             X           Y           Z
 ---------------------------------------------------------------------
      1          6           0        0.704781    1.830754    0.000000
      2          1           0        0.189555    2.224900    0.884530
      3          1           0        0.189555    2.224900   -0.884530
      4          1           0        1.723784    2.233696    0.000000
      5          6           0        0.704825    0.300278    0.000000
      6          1           0        1.253626   -0.068499   -0.878145
      7          1           0        1.253626   -0.068499    0.878145
      8          6           0       -0.704825   -0.300278    0.000000
      9          1           0       -1.253626    0.068499   -0.878145
     10          1           0       -1.253626    0.068499    0.878145
     11          6           0       -0.704781   -1.830754    0.000000
     12          1           0       -0.189555   -2.224900    0.884530
     13          1           0       -1.723784   -2.233696    0.000000
     14          1           0       -0.189555   -2.224900   -0.884530
 ---------------------------------------------------------------------
                    Distance matrix (angstroms):
                    1          2          3          4          5
     1  C    0.000000
     2  H    1.096906   0.000000
     3  H    1.096906   1.769061   0.000000
     4  H    1.095779   1.770969   1.770969   0.000000
     5  C    1.530476   2.179924   2.179924   2.185494   0.000000
     6  H    2.163222   3.082037   2.528234   2.508444   1.099235
     7  H    2.163222   2.528234   3.082037   2.508444   1.099235
     8  C    2.555051   2.821140   2.821140   3.509867   1.532246
     9  H    2.777055   3.136855   2.594778   3.784731   2.158793
    10  H    2.777055   2.594778   3.136855   3.784731   2.158793
    11  C    3.923455   4.246240   4.246240   4.734732   2.555051
    12  H    4.246240   4.465920   4.803542   4.931769   2.821140
    13  H    4.734732   4.931769   4.931769   5.642989   3.509867
    14  H    4.246240   4.803542   4.465920   4.931769   2.821140
                    6          7          8          9         10
     6  H    0.000000
     7  H    1.756290   0.000000
     8  C    2.158793   2.158793   0.000000
     9  H    2.510991   3.064250   1.099235   0.000000
    10  H    3.064250   2.510991   1.099235   1.756290   0.000000
    11  C    2.777055   2.777055   1.530476   2.163222   2.163222
    12  H    3.136855   2.594778   2.179924   3.082037   2.528234
    13  H    3.784731   3.784731   2.185494   2.508444   2.508444
    14  H    2.594778   3.136855   2.179924   2.528234   3.082037
                   11         12         13         14
    11  C    0.000000
    12  H    1.096906   0.000000
    13  H    1.095779   1.770969   0.000000
    14  H    1.096906   1.769061   1.770969   0.000000
 Stoichiometry    C4H10
 Framework group  C2H[SGH(C4H2),X(H8)]
 Deg. of freedom    11
 Full point group                 C2H     NOp   4
 RotChk:  IX=0 Diff= 2.27D-06
 Largest Abelian subgroup         C2H     NOp   4
 Largest concise Abelian subgroup C2H     NOp   4
                         Standard orientation:                         
 ---------------------------------------------------------------------
 Center     Atomic      Atomic             Coordinates (Angstroms)
 Number     Number       Type             X           Y           Z
 ---------------------------------------------------------------------
      1          6           0        0.704833    1.830734    0.000000
      2          1           0        0.189618    2.224894    0.884530
      3          1           0        0.189618    2.224894   -0.884530
      4          1           0        1.723848    2.233647    0.000000
      5          6           0        0.704833    0.300258    0.000000
      6          1           0        1.253624   -0.068535   -0.878145
      7          1           0        1.253624   -0.068535    0.878145
      8          6           0       -0.704833   -0.300258    0.000000
      9          1           0       -1.253624    0.068535   -0.878145
     10          1           0       -1.253624    0.068535    0.878145
     11          6           0       -0.704833   -1.830734    0.000000
     12          1           0       -0.189618   -2.224894    0.884530
     13          1           0       -1.723848   -2.233647    0.000000
     14          1           0       -0.189618   -2.224894   -0.884530
 ---------------------------------------------------------------------
 Rotational constants (GHZ):     23.3841895      3.6134023      3.3929701
 Leave Link  202 at Wed Mar 30 17:49:01 2016, MaxMem=  2147483648 cpu:         0.0
 (Enter /vol-th/home/you/softwares/gaussian/g09D01/g09/l301.exe)
 Standard basis: 6-31G(d) (6D, 7F)
 Ernie: Thresh=  0.10000D-02 Tol=  0.10000D-05 Strict=F.
 There are    28 symmetry adapted cartesian basis functions of AG  symmetry.
 There are    12 symmetry adapted cartesian basis functions of BG  symmetry.
 There are    12 symmetry adapted cartesian basis functions of AU  symmetry.
 There are    28 symmetry adapted cartesian basis functions of BU  symmetry.
 There are    28 symmetry adapted basis functions of AG  symmetry.
 There are    12 symmetry adapted basis functions of BG  symmetry.
 There are    12 symmetry adapted basis functions of AU  symmetry.
 There are    28 symmetry adapted basis functions of BU  symmetry.
    80 basis functions,   152 primitive gaussians,    80 cartesian basis functions
    17 alpha electrons       17 beta electrons
       nuclear repulsion energy       130.2851652259 Hartrees.
 IExCor=  402 DFT=T Ex+Corr=B3LYP ExCW=0 ScaHFX=  0.200000
 ScaDFX=  0.800000  0.720000  1.000000  0.810000 ScalE2=  1.000000  1.000000
 IRadAn=      5 IRanWt=     -1 IRanGd=            0 ICorTp=0 IEmpDi=141
 NAtoms=   14 NActive=   14 NUniq=    5 SFac= 4.00D+00 NAtFMM=   60 NAOKFM=F Big=F
 Integral buffers will be    131072 words long.
 Raffenetti 2 integral format.
 Two-electron integral symmetry is turned on.
 R6Disp:  Grimme-D3(BJ) Dispersion energy=       -0.0145690651 Hartrees.
 Nuclear repulsion after empirical dispersion term =      130.2705961608 Hartrees.
 Leave Link  301 at Wed Mar 30 17:49:01 2016, MaxMem=  2147483648 cpu:         0.6
 (Enter /vol-th/home/you/softwares/gaussian/g09D01/g09/l302.exe)
 NPDir=0 NMtPBC=     1 NCelOv=     1 NCel=       1 NClECP=     1 NCelD=      1
         NCelK=      1 NCelE2=     1 NClLst=     1 CellRange=     0.0.
 One-electron integrals computed using PRISM.
 One-electron integral symmetry used in STVInt
 NBasis=    80 RedAO= T EigKep=  4.65D-03  NBF=    28    12    12    28
 NBsUse=    80 1.00D-06 EigRej= -1.00D+00 NBFU=    28    12    12    28
 Precomputing XC quadrature grid using
 IXCGrd= 4 IRadAn=           5 IRanWt=          -1 IRanGd=           0 AccXCQ= 0.00D+00.
 Generated NRdTot=       0 NPtTot=           0 NUsed=           0 NTot=          32
 NSgBfM=    80    80    80    80    80 MxSgAt=    14 MxSgA2=    14.
 Leave Link  302 at Wed Mar 30 17:49:01 2016, MaxMem=  2147483648 cpu:         2.3
 (Enter /vol-th/home/you/softwares/gaussian/g09D01/g09/l303.exe)
 DipDrv:  MaxL=1.
 Leave Link  303 at Wed Mar 30 17:49:01 2016, MaxMem=  2147483648 cpu:         0.3
 (Enter /vol-th/home/you/softwares/gaussian/g09D01/g09/l401.exe)
 Initial guess from the checkpoint file:  "/vol-th/home/you/scratch/Gau-12327.chk"
 B after Tr=     0.000000    0.000000    0.000000
         Rot=    1.000000    0.000000    0.000000   -0.000001 Ang=   0.00 deg.
 Guess basis will be translated and rotated to current coordinates.
 JPrj=2 DoOrth=T DoCkMO=T.
 Initial guess orbital symmetries:
       Occupied  (AG) (BU) (BU) (AG) (AG) (BU) (AG) (BU) (AU) (AG)
                 (BU) (BG) (BU) (AU) (AG) (BG) (AG)
       Virtual   (AG) (AG) (AG) (AG) (AG) (AG) (AG) (AG) (AG) (AG)
                 (AG) (AG) (AG) (AG) (AG) (AG) (AG) (AG) (AG) (AG)
                 (AG) (BG) (BG) (BG) (BG) (BG) (BG) (BG) (BG) (BG)
                 (BG) (AU) (AU) (AU) (AU) (AU) (AU) (AU) (AU) (AU)
                 (AU) (BU) (BU) (BU) (BU) (BU) (BU) (BU) (BU) (BU)
                 (BU) (BU) (BU) (BU) (BU) (BU) (BU) (BU) (BU) (BU)
                 (BU) (BU) (BU)
 The electronic state of the initial guess is 1-AG.
 Leave Link  401 at Wed Mar 30 17:49:01 2016, MaxMem=  2147483648 cpu:         1.2
 (Enter /vol-th/home/you/softwares/gaussian/g09D01/g09/l502.exe)
 Closed shell SCF:
 Using DIIS extrapolation, IDIIS=  1040.
 Integral symmetry usage will be decided dynamically.
 Keep R1 ints in memory in symmetry-blocked form, NReq=6650374.
 IVT=       39694 IEndB=       39694 NGot=  2147483648 MDV=  2146083775
 LenX=  2146083775 LenY=  2146076934
 Requested convergence on RMS density matrix=1.00D-08 within 128 cycles.
 Requested convergence on MAX density matrix=1.00D-06.
 Requested convergence on             energy=1.00D-06.
 No special actions if energy rises.
 FoFCou: FMM=F IPFlag=           0 FMFlag=           0 FMFlg1=           0
         NFxFlg=           0 DoJE=F BraDBF=F KetDBF=F FulRan=T
         wScrn=  0.000000 ICntrl=     600 IOpCl=  0 I1Cent=           0 NGrid=           0
         NMat0=    1 NMatS0=   3240 NMatT0=    0 NMatD0=    1 NMtDS0=    0 NMtDT0=    0
 Petite list used in FoFCou.

 Cycle   1  Pass 1  IDiag  1:
 E= -158.472599503294    
 DIIS: error= 3.14D-06 at cycle   1 NSaved=   1.
 NSaved= 1 IEnMin= 1 EnMin= -158.472599503294     IErMin= 1 ErrMin= 3.14D-06
[...]
   D19        1.04336   0.00000   0.00000   0.00000   0.00000   1.04336
   D20        3.14159   0.00000   0.00000   0.00000   0.00000   3.14159
   D21       -1.04336   0.00000   0.00000   0.00000   0.00000  -1.04336
   D22       -3.11047   0.00000   0.00000   0.00000   0.00000  -3.11047
   D23       -1.01224   0.00000   0.00000   0.00000   0.00000  -1.01224
   D24        1.08599   0.00000   0.00000   0.00000   0.00000   1.08599
   D25       -1.08599   0.00000   0.00000   0.00000   0.00000  -1.08599
   D26        1.01224   0.00000   0.00000   0.00000   0.00000   1.01224
   D27        3.11047   0.00000   0.00000   0.00000   0.00000   3.11047
         Item               Value     Threshold  Converged?
 Maximum Force            0.000004     0.000015     YES
 RMS     Force            0.000001     0.000010     YES
 Maximum Displacement     0.000011     0.000060     YES
 RMS     Displacement     0.000005     0.000040     YES
 Predicted change in Energy=-9.123906D-11
 Optimization completed.
    -- Stationary point found.
                           ----------------------------
                           !   Optimized Parameters   !
                           ! (Angstroms and Degrees)  !
 --------------------------                            --------------------------
 ! Name  Definition              Value          Derivative Info.                !
 --------------------------------------------------------------------------------
 ! R1    R(1,2)                  1.0969         -DE/DX =    0.0                 !
 ! R2    R(1,3)                  1.0969         -DE/DX =    0.0                 !
 ! R3    R(1,4)                  1.0958         -DE/DX =    0.0                 !
 ! R4    R(1,5)                  1.5305         -DE/DX =    0.0                 !
 ! R5    R(5,6)                  1.0992         -DE/DX =    0.0                 !
 ! R6    R(5,7)                  1.0992         -DE/DX =    0.0                 !
 ! R7    R(5,8)                  1.5322         -DE/DX =    0.0                 !
 ! R8    R(8,9)                  1.0992         -DE/DX =    0.0                 !
 ! R9    R(8,10)                 1.0992         -DE/DX =    0.0                 !
 ! R10   R(8,11)                 1.5305         -DE/DX =    0.0                 !
 ! R11   R(11,12)                1.0969         -DE/DX =    0.0                 !
 ! R12   R(11,13)                1.0958         -DE/DX =    0.0                 !
 ! R13   R(11,14)                1.0969         -DE/DX =    0.0                 !
 ! A1    A(2,1,3)              107.4888         -DE/DX =    0.0                 !
 ! A2    A(2,1,4)              107.7381         -DE/DX =    0.0                 !
 ! A3    A(2,1,5)              111.0596         -DE/DX =    0.0                 !
 ! A4    A(3,1,4)              107.7381         -DE/DX =    0.0                 !
 ! A5    A(3,1,5)              111.0596         -DE/DX =    0.0                 !
 ! A6    A(4,1,5)              111.5736         -DE/DX =    0.0                 !
 ! A7    A(1,5,6)              109.6029         -DE/DX =    0.0                 !
 ! A8    A(1,5,7)              109.6029         -DE/DX =    0.0                 !
 ! A9    A(1,5,8)              113.0739         -DE/DX =    0.0                 !
 ! A10   A(6,5,7)              106.0445         -DE/DX =    0.0                 !
 ! A11   A(6,5,8)              109.1365         -DE/DX =    0.0                 !
 ! A12   A(7,5,8)              109.1365         -DE/DX =    0.0                 !
 ! A13   A(5,8,9)              109.1365         -DE/DX =    0.0                 !
 ! A14   A(5,8,10)             109.1365         -DE/DX =    0.0                 !
 ! A15   A(5,8,11)             113.0739         -DE/DX =    0.0                 !
 ! A16   A(9,8,10)             106.0445         -DE/DX =    0.0                 !
 ! A17   A(9,8,11)             109.6029         -DE/DX =    0.0                 !
 ! A18   A(10,8,11)            109.6029         -DE/DX =    0.0                 !
 ! A19   A(8,11,12)            111.0596         -DE/DX =    0.0                 !
 ! A20   A(8,11,13)            111.5736         -DE/DX =    0.0                 !
 ! A21   A(8,11,14)            111.0596         -DE/DX =    0.0                 !
 ! A22   A(12,11,13)           107.7381         -DE/DX =    0.0                 !
 ! A23   A(12,11,14)           107.4888         -DE/DX =    0.0                 !
 ! A24   A(13,11,14)           107.7381         -DE/DX =    0.0                 !
 ! D1    D(2,1,5,6)           -178.2166         -DE/DX =    0.0                 !
 ! D2    D(2,1,5,7)            -62.2227         -DE/DX =    0.0                 !
 ! D3    D(2,1,5,8)             59.7804         -DE/DX =    0.0                 !
 ! D4    D(3,1,5,6)             62.2227         -DE/DX =    0.0                 !
 ! D5    D(3,1,5,7)            178.2166         -DE/DX =    0.0                 !
 ! D6    D(3,1,5,8)            -59.7804         -DE/DX =    0.0                 !
 ! D7    D(4,1,5,6)            -57.997          -DE/DX =    0.0                 !
 ! D8    D(4,1,5,7)             57.997          -DE/DX =    0.0                 !
 ! D9    D(4,1,5,8)            180.0            -DE/DX =    0.0                 !
 ! D10   D(1,5,8,9)             57.7359         -DE/DX =    0.0                 !
 ! D11   D(1,5,8,10)           -57.7359         -DE/DX =    0.0                 !
 ! D12   D(1,5,8,11)           180.0            -DE/DX =    0.0                 !
 ! D13   D(6,5,8,9)            -64.5282         -DE/DX =    0.0                 !
 ! D14   D(6,5,8,10)           180.0            -DE/DX =    0.0                 !
 ! D15   D(6,5,8,11)            57.7359         -DE/DX =    0.0                 !
 ! D16   D(7,5,8,9)           -180.0            -DE/DX =    0.0                 !
 ! D17   D(7,5,8,10)            64.5282         -DE/DX =    0.0                 !
 ! D18   D(7,5,8,11)           -57.7359         -DE/DX =    0.0                 !
 ! D19   D(5,8,11,12)           59.7804         -DE/DX =    0.0                 !
 ! D20   D(5,8,11,13)          180.0            -DE/DX =    0.0                 !
 ! D21   D(5,8,11,14)          -59.7804         -DE/DX =    0.0                 !
 ! D22   D(9,8,11,12)         -178.2166         -DE/DX =    0.0                 !
 ! D23   D(9,8,11,13)          -57.997          -DE/DX =    0.0                 !
 ! D24   D(9,8,11,14)           62.2227         -DE/DX =    0.0                 !
 ! D25   D(10,8,11,12)         -62.2227         -DE/DX =    0.0                 !
 ! D26   D(10,8,11,13)          57.997          -DE/DX =    0.0                 !
 ! D27   D(10,8,11,14)         178.2166         -DE/DX =    0.0                 !
 --------------------------------------------------------------------------------
 GradGradGradGradGradGradGradGradGradGradGradGradGradGradGradGradGradGrad

 Leave Link  103 at Wed Mar 30 17:49:14 2016, MaxMem=  2147483648 cpu:         0.1
 (Enter /vol-th/home/you/softwares/gaussian/g09D01/g09/l9999.exe)
 1\1\GINC-CN555\Freq\RB3LYP\6-31G(d)\C4H10\ROOT\30-Mar-2016\0\\#P Geom=
 AllCheck Guess=TCheck SCRF=Check GenChk RB3LYP/6-31G(d) Freq\\using B3
 LYP/6-31G(d) to do opt and freq calc.\\0,1\C,0.7047808568,1.8307537961
 ,0.\H,0.1895548286,2.2248998768,0.8845304384\H,0.1895548286,2.22489987
 68,-0.8845304384\H,1.7237842956,2.2336963129,0.\C,0.7048246487,0.30027
 7827,0.\H,1.2536255192,-0.0684992904,-0.8781448718\H,1.2536255192,-0.0
 684992904,0.8781448718\C,-0.7048246487,-0.300277827,0.\H,-1.2536255192
 ,0.0684992904,-0.8781448718\H,-1.2536255192,0.0684992904,0.8781448718\
 C,-0.7047808568,-1.8307537961,0.\H,-0.1895548286,-2.2248998768,0.88453
 04384\H,-1.7237842956,-2.2336963129,0.\H,-0.1895548286,-2.2248998768,-
 0.8845304384\\Version=ES64L-G09RevD.01\State=1-AG\HF=-158.4725995\RMSD
 =7.410e-10\RMSF=1.278e-06\ZeroPoint=0.1328917\Thermal=0.1386511\Dipole
 =0.,0.,0.\DipoleDeriv=0.0943528,-0.0651077,0.,-0.0054714,0.0508455,0.,
 0.,0.,0.1326718,0.0060888,0.0616067,0.0927953,0.0231114,-0.0112683,-0.
 0403627,0.0831232,-0.0770176,-0.0908745,0.0060888,0.0616067,-0.0927953
 ,0.0231114,-0.0112683,0.0403627,-0.0831232,0.0770176,-0.0908745,-0.142
 0794,-0.1116565,0.,-0.0867956,-0.0451595,0.,0.,0.,0.063791,0.1221591,0
 .0116463,0.,-0.0259998,0.0997261,0.,0.,0.,0.1762172,-0.043305,0.020952
 2,0.0788573,0.036022,-0.0414378,-0.0721404,0.101188,-0.0720229,-0.0954
 655,-0.043305,0.0209522,-0.0788573,0.036022,-0.0414378,0.0721404,-0.10
 1188,0.0720229,-0.0954655,0.1221591,0.0116464,0.,-0.0259998,0.0997261,
 0.,0.,0.,0.1762172,-0.043305,0.0209522,-0.0788573,0.036022,-0.0414378,
 0.0721404,-0.101188,0.0720229,-0.0954655,-0.043305,0.0209522,0.0788573
 ,0.036022,-0.0414378,-0.0721404,0.101188,-0.0720229,-0.0954655,0.09435
 28,-0.0651077,0.,-0.0054714,0.0508456,0.,0.,0.,0.1326718,0.0060888,0.0
 616067,-0.0927953,0.0231114,-0.0112683,0.0403627,-0.0831232,0.0770176,
 -0.0908745,-0.1420794,-0.1116565,0.,-0.0867955,-0.0451595,0.,0.,0.,0.0
 63791,0.0060888,0.0616067,0.0927953,0.0231114,-0.0112683,-0.0403627,0.
 0831232,-0.0770176,-0.0908745\Polar=43.2254988,3.1374981,48.0879235,0.
 ,0.,40.7853373\PG=C02H [SGH(C4H2),X(H8)]\NImag=0\\0.58009555,0.0045056
 1,0.47875427,0.,0.,0.57174045,-0.10784705,0.04209529,0.09883438,0.1121
 6085,0.04182092,-0.07952905,-0.07233741,-0.04698709,0.08811609,0.09871
 286,-0.07275171,-0.22133480,-0.10996334,0.08064127,0.23778335,-0.10784
 705,0.04209529,-0.09883438,0.00837169,-0.00676364,0.01353058,0.1121608
 5,0.04182092,-0.07952905,0.07233741,-0.00676364,0.00391269,-0.00920440
 ,-0.04698709,0.08811609,-0.09871286,0.07275171,-0.22133480,-0.01353058
 ,0.00920440,-0.02129828,0.10996334,-0.08064127,0.23778335,-0.27979353,
 -0.08757052,0.,-0.01373364,-0.00468991,-0.00068031,-0.01373364,-0.0046
 8991,0.00068031,0.30212357,-0.08688676,-0.08153251,0.,0.01135568,0.004
 07237,0.00129935,0.01135568,0.00407237,-0.00129935,0.09624650,0.089198
 23,0.,0.,-0.04993101,0.02608204,0.01075942,0.00091118,-0.02608204,-0.0
 1075942,0.00091118,0.,0.,0.04808587,-0.08137425,0.00261862,0.,-0.00076
 302,0.01658376,-0.00070288,-0.00076302,0.01658376,0.00070288,0.0026382
 6,-0.03377140,0.,0.50989249,0.00401366,-0.19640369,0.,0.00048426,-0.01
 286136,0.00010295,0.00048426,-0.01286136,-0.00010295,0.00166281,-0.010
 97507,0.,-0.03769324,0.49091601,0.,0.,-0.08169410,-0.00013958,-0.02949
 427,0.00092591,0.00013958,0.02949427,0.00092591,0.,0.,-0.00139120,0.,0
 .,0.59359843,0.00019171,-0.00012802,-0.00073358,0.00092246,-0.00040160
 ,-0.00003334,-0.00017602,0.00013055,0.00020216,0.00046872,0.00030297,-
 0.00039587,-0.10981606,0.04120721,0.09780111,0.12083065,0.01690521,-0.
 01325994,-0.02887135,-0.00002437,-0.00709954,0.00040473,0.00021542,0.0
 0153304,0.00048785,-0.00052066,0.00135087,0.00003880,0.04117653,-0.075
 72755,-0.06543270,-0.04286411,0.08551021,-0.00085341,0.00046421,0.0009
 2709,-0.00040212,0.00041459,0.00167813,-0.00006157,-0.00044243,0.00086
 703,-0.00033354,-0.00052121,0.00004902,0.09816908,-0.06573693,-0.21496
 034,-0.10960962,0.07338527,0.23062483,0.00019171,-0.00012802,0.0007335
 8,-0.00017602,0.00013055,-0.00020216,0.00092246,-0.00040160,0.00003334
 ,0.00046872,0.00030297,0.00039587,-0.10981606,0.04120721,-0.09780111,0
 .00866182,-0.00608949,0.01325480,0.12083065,0.01690521,-0.01325994,0.0
 2887135,0.00021542,0.00153304,-0.00048785,-0.00002437,-0.00709954,-0.0
 0040473,-0.00052066,0.00135087,-0.00003880,0.04117653,-0.07572755,0.06
 543270,-0.00608949,0.00366841,-0.00876499,-0.04286411,0.08551021,0.000
 85341,-0.00046421,0.00092709,0.00006157,0.00044243,0.00086703,0.000402
 12,-0.00041459,0.00167813,0.00033354,0.00052121,0.00004902,-0.09816908
 ,0.06573693,-0.21496034,-0.01325480,0.00876499,-0.02234826,0.10960962,
 -0.07338527,0.23062483,0.00080483,-0.00564666,0.,0.00068421,0.00165761
 ,0.00015049,0.00068421,0.00165761,-0.00015048,0.00109996,0.00308698,0.
 ,-0.17693778,-0.03422960,0.,-0.01816689,-0.00660025,-0.00014259,-0.018
 16689,-0.00660025,0.00014259,0.50989249,-0.03478679,-0.01736317,0.,-0.
 00040280,0.00158710,0.00030330,-0.00040281,0.00158710,-0.00030330,-0.0
 0042960,-0.00692363,0.,-0.03422960,-0.09186959,0.,0.00944270,0.0033113
 8,0.00006633,0.00944271,0.00331137,-0.00006633,-0.03769324,0.49091601,
 0.,0.,-0.00010623,-0.00099522,-0.00093691,0.00002166,0.00099522,0.0009
 3691,0.00002166,0.,0.,0.00022441,0.,0.,-0.08232705,0.02742122,0.010878
 29,-0.00013936,-0.02742122,-0.01087829,-0.00013936,0.,0.,0.59359843,0.
 00107904,0.00161958,-0.00033529,0.00001918,-0.00015769,0.00006869,0.00
 039370,-0.00105122,0.00056776,0.00023029,0.00016603,0.00048275,-0.0181
 6689,0.00944270,-0.02742122,0.00122478,0.00066521,0.00037743,-0.005863
 38,-0.00284214,0.00023594,-0.10981606,0.04120721,-0.09780111,0.1208306
 5,-0.00030035,0.00113752,-0.00104735,-0.00001845,-0.00002899,-0.000050
 44,0.00010885,-0.00001364,0.00040173,0.00018860,0.00014357,0.00008932,
 -0.00660025,0.00331138,-0.01087829,0.00066521,0.00015613,0.00031727,-0
 .00284214,-0.00068146,-0.00005467,0.04117653,-0.07572755,0.06543270,-0
 .04286411,0.08551021,0.00022174,0.00015564,0.00007116,-0.00004473,0.00
 006344,-0.00005655,-0.00016694,-0.00069871,0.00025671,0.00015246,-0.00
 028359,0.00026806,0.00014259,-0.00006633,-0.00013936,-0.00037743,-0.00
 031727,0.00096932,0.00023594,-0.00005467,0.00179314,-0.09816908,0.0657
 3693,-0.21496034,0.10960962,-0.07338527,0.23062483,0.00107904,0.001619
 58,0.00033529,0.00039370,-0.00105122,-0.00056776,0.00001918,-0.0001576
 9,-0.00006869,0.00023029,0.00016603,-0.00048275,-0.01816689,0.00944271
 ,0.02742122,-0.00586338,-0.00284214,-0.00023594,0.00122478,0.00066521,
 -0.00037743,-0.10981606,0.04120721,0.09780111,0.00866182,-0.00608949,-
 0.01325480,0.12083065,-0.00030035,0.00113752,0.00104735,0.00010885,-0.
 00001364,-0.00040173,-0.00001845,-0.00002899,0.00005044,0.00018860,0.0
 0014357,-0.00008932,-0.00660025,0.00331137,0.01087829,-0.00284214,-0.0
 0068146,0.00005467,0.00066521,0.00015613,-0.00031727,0.04117653,-0.075
 72755,-0.06543270,-0.00608949,0.00366841,0.00876499,-0.04286411,0.0855
 1021,-0.00022174,-0.00015564,0.00007116,0.00016694,0.00069871,0.000256
 71,0.00004473,-0.00006344,-0.00005655,-0.00015246,0.00028359,0.0002680
 6,-0.00014259,0.00006633,-0.00013936,-0.00023594,0.00005467,0.00179314
 ,0.00037743,0.00031727,0.00096932,0.09816908,-0.06573693,-0.21496034,0
 .01325480,-0.00876499,-0.02234826,-0.10960962,0.07338527,0.23062483,-0
 .00676461,-0.00126051,0.,0.00009625,-0.00003113,-0.00033472,0.00009625
 ,-0.00003113,0.00033472,-0.00000789,-0.00237451,0.,0.00080483,-0.03478
 679,0.,0.00107904,-0.00030035,-0.00022174,0.00107904,-0.00030035,0.000
 22174,-0.08137425,0.00401366,0.,0.00019171,0.01690521,0.00085341,0.000
 19171,0.01690521,-0.00085341,0.58009555,-0.00126051,-0.00000537,0.,-0.
 00010059,-0.00003221,0.00003704,-0.00010059,-0.00003221,-0.00003704,0.
 00038091,-0.00008216,0.,-0.00564666,-0.01736317,0.,0.00161958,0.001137
 52,-0.00015564,0.00161958,0.00113752,0.00015564,0.00261862,-0.19640369
 ,0.,-0.00012802,-0.01325994,-0.00046421,-0.00012802,-0.01325994,0.0004
 6421,0.00450561,0.47875427,0.,0.,-0.00053136,-0.00010231,0.00028038,0.
 00030016,0.00010231,-0.00028038,0.00030016,0.,0.,0.00059502,0.,0.,-0.0
 0010623,0.00033529,0.00104735,0.00007116,-0.00033529,-0.00104735,0.000
 07116,0.,0.,-0.08169410,0.00073358,0.02887135,0.00092709,-0.00073358,-
 0.02887135,0.00092709,0.,0.,0.57174045,0.00009625,-0.00010059,0.000102
 31,-0.00002727,0.00004011,0.00001119,-0.00011622,-0.00005631,-0.000038
 97,0.00001487,0.00005364,-0.00000517,0.00068421,-0.00040280,0.00099522
 ,0.00001918,-0.00001845,0.00004473,0.00039370,0.00010885,-0.00016694,-
 0.00076302,0.00048426,0.00013958,0.00092246,-0.00002437,0.00040212,-0.
 00017602,0.00021542,-0.00006157,-0.10784705,0.04209529,-0.09883438,0.1
 1216085,-0.00003113,-0.00003221,-0.00028038,0.00004011,0.00000055,0.00
 002134,-0.00005631,0.00031576,-0.00018818,-0.00009435,0.00002719,-0.00
 009712,0.00165761,0.00158710,0.00093691,-0.00015769,-0.00002899,-0.000
 06344,-0.00105122,-0.00001364,-0.00069871,0.01658376,-0.01286136,0.029
 49427,-0.00040160,-0.00709954,-0.00041459,0.00013055,0.00153304,-0.000
 44243,0.04182092,-0.07952905,0.07233741,-0.04698709,0.08811609,0.00033
 472,-0.00003704,0.00030016,-0.00001119,-0.00002134,-0.00001885,-0.0000
 3897,-0.00018818,-0.00001670,0.00002825,0.00010203,-0.00001899,-0.0001
 5049,-0.00030330,0.00002166,-0.00006869,0.00005044,-0.00005655,0.00056
 776,0.00040173,0.00025671,0.00070288,-0.00010295,0.00092591,0.00003334
 ,-0.00040473,0.00167813,0.00020216,0.00048785,0.00086703,-0.09871286,0
 .07275171,-0.22133480,0.10996334,-0.08064127,0.23778335,-0.00000789,0.
 00038091,0.,0.00001487,-0.00009435,-0.00002825,0.00001487,-0.00009435,
 0.00002825,-0.00002083,-0.00005745,0.,0.00109996,-0.00042960,0.,0.0002
 3029,0.00018860,-0.00015246,0.00023029,0.00018860,0.00015246,0.0026382
 6,0.00166281,0.,0.00046872,-0.00052066,0.00033354,0.00046872,-0.000520
 66,-0.00033354,-0.27979353,-0.08757052,0.,-0.01373364,-0.00468991,0.00
 068031,0.30212357,-0.00237451,-0.00008216,0.,0.00005364,0.00002719,-0.
 00010203,0.00005364,0.00002719,0.00010203,-0.00005745,-0.00087285,0.,0
 .00308698,-0.00692363,0.,0.00016603,0.00014357,0.00028359,0.00016603,0
 .00014357,-0.00028359,-0.03377140,-0.01097507,0.,0.00030297,0.00135087
 ,0.00052121,0.00030297,0.00135087,-0.00052121,-0.08688676,-0.08153251,
 0.,0.01135568,0.00407237,-0.00129935,0.09624650,0.08919823,0.,0.,0.000
 59502,0.00000517,0.00009712,-0.00001899,-0.00000517,-0.00009712,-0.000
 01899,0.,0.,-0.00000162,0.,0.,0.00022441,-0.00048275,-0.00008932,0.000
 26806,0.00048275,0.00008932,0.00026806,0.,0.,-0.00139120,0.00039587,-0
 .00003880,0.00004902,-0.00039587,0.00003880,0.00004902,0.,0.,-0.049931
 01,-0.02608204,-0.01075942,0.00091118,0.,0.,0.04808587,0.00009625,-0.0
 0010059,-0.00010231,-0.00011622,-0.00005631,0.00003897,-0.00002727,0.0
 0004011,-0.00001119,0.00001487,0.00005364,0.00000517,0.00068421,-0.000
 40281,-0.00099522,0.00039370,0.00010885,0.00016694,0.00001918,-0.00001
 845,-0.00004473,-0.00076302,0.00048426,-0.00013958,-0.00017602,0.00021
 542,0.00006157,0.00092246,-0.00002437,-0.00040212,-0.10784705,0.042095
 29,0.09883438,0.00837169,-0.00676364,-0.01353058,-0.01373364,0.0113556
 8,0.02608204,0.11216085,-0.00003113,-0.00003221,0.00028038,-0.00005631
 ,0.00031576,0.00018818,0.00004011,0.00000055,-0.00002134,-0.00009435,0
 .00002719,0.00009712,0.00165761,0.00158710,-0.00093691,-0.00105122,-0.
 00001364,0.00069871,-0.00015769,-0.00002899,0.00006344,0.01658376,-0.0
 1286136,-0.02949427,0.00013055,0.00153304,0.00044243,-0.00040160,-0.00
 709954,0.00041459,0.04182092,-0.07952905,-0.07233741,-0.00676364,0.003
 91269,0.00920440,-0.00468991,0.00407237,0.01075942,-0.04698709,0.08811
 609,-0.00033472,0.00003704,0.00030016,0.00003897,0.00018818,-0.0000167
 0,0.00001119,0.00002134,-0.00001885,-0.00002825,-0.00010203,-0.0000189
 9,0.00015048,0.00030330,0.00002166,-0.00056776,-0.00040173,0.00025671,
 0.00006869,-0.00005044,-0.00005655,-0.00070288,0.00010295,0.00092591,-
 0.00020216,-0.00048785,0.00086703,-0.00003334,0.00040473,0.00167813,0.
 09871286,-0.07275171,-0.22133480,0.01353058,-0.00920440,-0.02129828,-0
 .00068031,0.00129935,0.00091118,-0.10996334,0.08064127,0.23778335\\0.0
 0000071,0.00000339,0.,-0.00000010,-0.00000039,0.00000060,-0.00000010,-
 0.00000039,-0.00000060,-0.00000203,-0.00000082,0.,0.00000300,-0.000002
 26,0.,0.00000062,0.00000076,-0.00000047,0.00000062,0.00000076,0.000000
 47,-0.00000300,0.00000226,0.,-0.00000062,-0.00000076,-0.00000047,-0.00
 000062,-0.00000076,0.00000047,-0.00000071,-0.00000339,0.,0.00000010,0.
 00000039,0.00000060,0.00000203,0.00000082,0.,0.00000010,0.00000039,-0.
 00000060\\\@


 WE DON'T KNOW ONE MILLIONTH OF ONE PERCENT ABOUT
 ANYTHING.
                                     T. A. EDISON.
 Job cpu time:       0 days  0 hours  2 minutes  9.3 seconds.
 File lengths (MBytes):  RWF=      8 Int=      0 D2E=      0 Chk=      2 Scr=      1
 Normal termination of Gaussian 09 at Wed Mar 30 17:49:14 2016.
