 Entering Gaussian System, Link 0=/share/apps/g09/g09
 Input=C3H7O2_62_b3631gd_226.gjf
 Output=C3H7O2_62_b3631gd_226.log
 Initial command:
 /share/apps/g09/l1.exe /state/partition1/Gau-3225.inp -scrdir=/state/partition1/
 Entering Link 1 = /share/apps/g09/l1.exe PID=      3228.
  
 Copyright (c) 1988,1990,1992,1993,1995,1998,2003,2009, Gaussian, Inc.
                  All Rights Reserved.
  
 This is part of the Gaussian(R) 09 program.  It is based on
 the Gaussian(R) 03 system (copyright 2003, Gaussian, Inc.),
 the Gaussian(R) 98 system (copyright 1998, Gaussian, Inc.),
 the Gaussian(R) 94 system (copyright 1995, Gaussian, Inc.),
 the Gaussian 92(TM) system (copyright 1992, Gaussian, Inc.),
 the Gaussian 90(TM) system (copyright 1990, Gaussian, Inc.),
 the Gaussian 88(TM) system (copyright 1988, Gaussian, Inc.),
 the Gaussian 86(TM) system (copyright 1986, Carnegie Mellon
 University), and the Gaussian 82(TM) system (copyright 1983,
 Carnegie Mellon University). Gaussian is a federally registered
 trademark of Gaussian, Inc.
  
 This software contains proprietary and confidential information,
 including trade secrets, belonging to Gaussian, Inc.
  
 This software is provided under written license and may be
 used, copied, transmitted, or stored only in accord with that
 written license.
  
 The following legend is applicable only to US Government
 contracts under FAR:
  
                    RESTRICTED RIGHTS LEGEND
  
 Use, reproduction and disclosure by the US Government is
 subject to restrictions as set forth in subparagraphs (a)
 and (c) of the Commercial Computer Software - Restricted
 Rights clause in FAR 52.227-19.
  
 Gaussian, Inc.
 340 Quinnipiac St., Bldg. 40, Wallingford CT 06492
  
  
 ---------------------------------------------------------------
 Warning -- This program may not be used in any manner that
 competes with the business of Gaussian, Inc. or will provide
 assistance to any competitor of Gaussian, Inc.  The licensee
 of this program is prohibited from giving any competitor of
 Gaussian, Inc. access to this program.  By using this program,
 the user acknowledges that Gaussian, Inc. is engaged in the
 business of creating and licensing software in the field of
 computational chemistry and represents and warrants to the
 licensee that it is not a competitor of Gaussian, Inc. and that
 it will not use this program in any manner prohibited above.
 ---------------------------------------------------------------
  

 Cite this work as:
 Gaussian 09, Revision A.01,
 M. J. Frisch, G. W. Trucks, H. B. Schlegel, G. E. Scuseria, 
 M. A. Robb, J. R. Cheeseman, G. Scalmani, V. Barone, B. Mennucci, 
 G. A. Petersson, H. Nakatsuji, M. Caricato, X. Li, H. P. Hratchian, 
 A. F. Izmaylov, J. Bloino, G. Zheng, J. L. Sonnenberg, M. Hada, 
 M. Ehara, K. Toyota, R. Fukuda, J. Hasegawa, M. Ishida, T. Nakajima, 
 Y. Honda, O. Kitao, H. Nakai, T. Vreven, J. A. Montgomery, Jr., 
 J. E. Peralta, F. Ogliaro, M. Bearpark, J. J. Heyd, E. Brothers, 
 K. N. Kudin, V. N. Staroverov, R. Kobayashi, J. Normand, 
 K. Raghavachari, A. Rendell, J. C. Burant, S. S. Iyengar, J. Tomasi, 
 M. Cossi, N. Rega, J. M. Millam, M. Klene, J. E. Knox, J. B. Cross, 
 V. Bakken, C. Adamo, J. Jaramillo, R. Gomperts, R. E. Stratmann, 
 O. Yazyev, A. J. Austin, R. Cammi, C. Pomelli, J. W. Ochterski, 
 R. L. Martin, K. Morokuma, V. G. Zakrzewski, G. A. Voth, 
 P. Salvador, J. J. Dannenberg, S. Dapprich, A. D. Daniels, 
 O. Farkas, J. B. Foresman, J. V. Ortiz, J. Cioslowski, 
 and D. J. Fox, Gaussian, Inc., Wallingford CT, 2009.
 
 ******************************************
 Gaussian 09:  EM64L-G09RevA.01  8-May-2009
                 1-Apr-2015 
 ******************************************
 %mem=28GB
 %nprocshared=12
 Will use up to   12 processors via shared memory.
 %chk=C3H7O2_62_b3631gd_226.chk
 -----------------------------------------------
 #p ub3lyp/6-31g(d) opt=modredundant freq scf=qc
 -----------------------------------------------
 1/14=-1,18=120,19=15,26=3,38=1/1,3;
 2/9=110,12=2,17=6,18=5,40=1/2;
 3/5=1,6=6,7=1,11=2,16=1,25=1,30=1,71=1,74=-5,116=2/1,2,3;
 4//1;
 5/5=2,8=3,38=5/8;
 6/7=2,8=2,9=2,10=2,28=1/1;
 7//1,2,3,16;
 1/14=-1,18=20,19=15/3(2);
 2/9=110/2;
 99//99;
 2/9=110/2;
 3/5=1,6=6,7=1,11=2,16=1,25=1,30=1,71=1,74=-5,116=2/1,2,3;
 4/5=5,16=3/1;
 5/5=2,8=3,38=5/8;
 7//1,2,3,16;
 1/14=-1,18=20,19=15/3(-5);
 2/9=110/2;
 6/7=2,8=2,9=2,10=2,19=2,28=1/1;
 99/9=1/99;
 Leave Link    1 at Wed Apr  1 01:17:04 2015, MaxMem= 3758096384 cpu:       0.5
 (Enter /share/apps/g09/l101.exe)
 ---------------------------------------------------
 C3H7O2_62_b3631gd using cbs-qb3 to calculate energy
 ---------------------------------------------------
 Symbolic Z-matrix:
 Charge =  0 Multiplicity = 2
 C                    -1.79087  -0.95201   0.16485 
 H                    -0.96464  -1.62763  -0.07684 
 H                    -2.69616  -1.3292   -0.32219 
 H                    -1.95138  -0.98977   1.24882 
 C                    -1.47395   0.4754   -0.29506 
 H                    -1.35489   0.51005  -1.38714 
 H                    -2.33538   1.13413  -0.08005 
 C                    -0.26396   1.06217   0.34422 
 H                     0.11213   2.01876  -0.00735 
 H                    -0.01762   0.80617   1.37126 
 O                     1.42367  -0.16837  -0.52355 
 O                     2.37391  -0.33611   0.26973 
 
 NAtoms=     12 NQM=     12 NQMF=      0 NMic=      0 NMicF=      0 NTot=     12.
 The following ModRedundant input section has been read:
 B    8   11 F                                                                 
                    Isotopes and Nuclear Properties:
 (Nuclear quadrupole moments (NQMom) in fm**2, nuclear magnetic moments (NMagM)
  in nuclear magnetons)

  Atom         1           2           3           4           5           6           7           8           9          10
 IAtWgt=          12           1           1           1          12           1           1          12           1           1
 AtmWgt=  12.0000000   1.0078250   1.0078250   1.0078250  12.0000000   1.0078250   1.0078250  12.0000000   1.0078250   1.0078250
 NucSpn=           0           1           1           1           0           1           1           0           1           1
 AtZEff=   0.0000000   0.0000000   0.0000000   0.0000000   0.0000000   0.0000000   0.0000000   0.0000000   0.0000000   0.0000000
 NQMom=    0.0000000   0.0000000   0.0000000   0.0000000   0.0000000   0.0000000   0.0000000   0.0000000   0.0000000   0.0000000
 NMagM=    0.0000000   2.7928460   2.7928460   2.7928460   0.0000000   2.7928460   2.7928460   0.0000000   2.7928460   2.7928460

  Atom        11          12
 IAtWgt=          16          16
 AtmWgt=  15.9949146  15.9949146
 NucSpn=           0           0
 AtZEff=   0.0000000   0.0000000
 NQMom=    0.0000000   0.0000000
 NMagM=    0.0000000   0.0000000
 Leave Link  101 at Wed Apr  1 01:17:04 2015, MaxMem= 3758096384 cpu:       0.6
 (Enter /share/apps/g09/l103.exe)

 GradGradGradGradGradGradGradGradGradGradGradGradGradGradGradGradGradGrad
 Berny optimization.
 Initialization pass.
                           ----------------------------
                           !    Initial Parameters    !
                           ! (Angstroms and Degrees)  !
 --------------------------                            --------------------------
 ! Name  Definition              Value          Derivative Info.                !
 --------------------------------------------------------------------------------
 ! R1    R(1,2)                  1.0943         estimate D2E/DX2                !
 ! R2    R(1,3)                  1.095          estimate D2E/DX2                !
 ! R3    R(1,4)                  1.0964         estimate D2E/DX2                !
 ! R4    R(1,5)                  1.5328         estimate D2E/DX2                !
 ! R5    R(2,11)                 2.8342         estimate D2E/DX2                !
 ! R6    R(5,6)                  1.0991         estimate D2E/DX2                !
 ! R7    R(5,7)                  1.1055         estimate D2E/DX2                !
 ! R8    R(5,8)                  1.489          estimate D2E/DX2                !
 ! R9    R(8,9)                  1.0863         estimate D2E/DX2                !
 ! R10   R(8,10)                 1.0867         estimate D2E/DX2                !
 ! R11   R(8,11)                 2.2617         Frozen                          !
 ! R12   R(9,11)                 2.6019         estimate D2E/DX2                !
 ! R13   R(10,11)                2.5724         estimate D2E/DX2                !
 ! R14   R(10,12)                2.8701         estimate D2E/DX2                !
 ! R15   R(11,12)                1.2492         estimate D2E/DX2                !
 ! A1    A(2,1,3)              108.2591         estimate D2E/DX2                !
 ! A2    A(2,1,4)              107.9155         estimate D2E/DX2                !
 ! A3    A(2,1,5)              110.6442         estimate D2E/DX2                !
 ! A4    A(3,1,4)              107.8682         estimate D2E/DX2                !
 ! A5    A(3,1,5)              110.9937         estimate D2E/DX2                !
 ! A6    A(4,1,5)              111.0371         estimate D2E/DX2                !
 ! A7    A(1,2,11)             110.6808         estimate D2E/DX2                !
 ! A8    A(1,5,6)              110.4805         estimate D2E/DX2                !
 ! A9    A(1,5,7)              109.5979         estimate D2E/DX2                !
 ! A10   A(1,5,8)              113.9652         estimate D2E/DX2                !
 ! A11   A(6,5,7)              105.0025         estimate D2E/DX2                !
 ! A12   A(6,5,8)              109.0353         estimate D2E/DX2                !
 ! A13   A(7,5,8)              108.354          estimate D2E/DX2                !
 ! A14   A(5,8,9)              119.301          estimate D2E/DX2                !
 ! A15   A(5,8,10)             119.8098         estimate D2E/DX2                !
 ! A16   A(5,8,11)             103.1337         estimate D2E/DX2                !
 ! A17   A(9,8,10)             115.773          estimate D2E/DX2                !
 ! A18   A(8,10,12)             85.407          estimate D2E/DX2                !
 ! A19   A(2,11,8)              65.8508         estimate D2E/DX2                !
 ! A20   A(2,11,9)              88.6686         estimate D2E/DX2                !
 ! A21   A(2,11,10)             66.8482         estimate D2E/DX2                !
 ! A22   A(2,11,12)            118.1505         estimate D2E/DX2                !
 ! A23   A(8,11,12)            113.3922         estimate D2E/DX2                !
 ! A24   A(9,11,10)             41.6694         estimate D2E/DX2                !
 ! A25   A(9,11,12)            111.7359         estimate D2E/DX2                !
 ! D1    D(3,1,2,11)           141.2885         estimate D2E/DX2                !
 ! D2    D(4,1,2,11)          -102.2099         estimate D2E/DX2                !
 ! D3    D(5,1,2,11)            19.4553         estimate D2E/DX2                !
 ! D4    D(2,1,5,6)             62.4751         estimate D2E/DX2                !
 ! D5    D(2,1,5,7)            177.7081         estimate D2E/DX2                !
 ! D6    D(2,1,5,8)            -60.6879         estimate D2E/DX2                !
 ! D7    D(3,1,5,6)            -57.7364         estimate D2E/DX2                !
 ! D8    D(3,1,5,7)             57.4966         estimate D2E/DX2                !
 ! D9    D(3,1,5,8)            179.1006         estimate D2E/DX2                !
 ! D10   D(4,1,5,6)           -177.7167         estimate D2E/DX2                !
 ! D11   D(4,1,5,7)            -62.4836         estimate D2E/DX2                !
 ! D12   D(4,1,5,8)             59.1204         estimate D2E/DX2                !
 ! D13   D(1,2,11,8)            10.4466         estimate D2E/DX2                !
 ! D14   D(1,2,11,9)             1.0756         estimate D2E/DX2                !
 ! D15   D(1,2,11,10)           37.6867         estimate D2E/DX2                !
 ! D16   D(1,2,11,12)          115.1353         estimate D2E/DX2                !
 ! D17   D(1,5,8,9)            172.4271         estimate D2E/DX2                !
 ! D18   D(1,5,8,10)           -33.915          estimate D2E/DX2                !
 ! D19   D(1,5,8,11)            68.2634         estimate D2E/DX2                !
 ! D20   D(6,5,8,9)             48.4814         estimate D2E/DX2                !
 ! D21   D(6,5,8,10)          -157.8606         estimate D2E/DX2                !
 ! D22   D(6,5,8,11)           -55.6823         estimate D2E/DX2                !
 ! D23   D(7,5,8,9)            -65.283          estimate D2E/DX2                !
 ! D24   D(7,5,8,10)            88.375          estimate D2E/DX2                !
 ! D25   D(7,5,8,11)          -169.4467         estimate D2E/DX2                !
 ! D26   D(5,8,10,12)          117.1981         estimate D2E/DX2                !
 ! D27   D(9,8,10,12)          -88.2506         estimate D2E/DX2                !
 ! D28   D(5,8,11,2)           -35.0982         estimate D2E/DX2                !
 ! D29   D(5,8,11,12)         -146.7764         estimate D2E/DX2                !
 --------------------------------------------------------------------------------
 Trust Radius=3.00D-01 FncErr=1.00D-07 GrdErr=1.00D-06
 Number of steps in this run=  79 maximum allowed number of steps= 100.
 GradGradGradGradGradGradGradGradGradGradGradGradGradGradGradGradGradGrad

 Leave Link  103 at Wed Apr  1 01:17:04 2015, MaxMem= 3758096384 cpu:       0.1
 (Enter /share/apps/g09/l202.exe)
                          Input orientation:                          
 ---------------------------------------------------------------------
 Center     Atomic      Atomic             Coordinates (Angstroms)
 Number     Number       Type             X           Y           Z
 ---------------------------------------------------------------------
      1          6           0       -1.790869   -0.952009    0.164845
      2          1           0       -0.964636   -1.627628   -0.076840
      3          1           0       -2.696160   -1.329195   -0.322191
      4          1           0       -1.951384   -0.989767    1.248821
      5          6           0       -1.473946    0.475396   -0.295064
      6          1           0       -1.354888    0.510047   -1.387141
      7          1           0       -2.335379    1.134130   -0.080054
      8          6           0       -0.263957    1.062169    0.344219
      9          1           0        0.112131    2.018757   -0.007351
     10          1           0       -0.017622    0.806171    1.371256
     11          8           0        1.423666   -0.168372   -0.523545
     12          8           0        2.373905   -0.336109    0.269733
 ---------------------------------------------------------------------
                    Distance matrix (angstroms):
                    1          2          3          4          5
     1  C    0.000000
     2  H    1.094319   0.000000
     3  H    1.095000   1.774101   0.000000
     4  H    1.096446   1.771416   1.771435   0.000000
     5  C    1.532789   2.174794   2.179700   2.181337   0.000000
     6  H    2.176315   2.537487   2.513153   3.090881   1.099094
     7  H    2.169895   3.083221   2.501352   2.534620   1.105544
     8  C    2.533880   2.811272   3.475390   2.806449   1.488979
     9  H    3.532211   3.802681   4.381142   3.858404   2.231677
    10  H    2.773271   2.986167   3.821272   2.641935   2.237613
    11  O    3.379527   2.834248   4.284976   3.899607   2.977045
    12  O    4.211375   3.596386   5.200207   4.482634   3.972844
                    6          7          8          9         10
     6  H    0.000000
     7  H    1.749091   0.000000
     8  C    2.119570   2.115650   0.000000
     9  H    2.516381   2.603489   1.086326   0.000000
    10  H    3.079728   2.754243   1.086748   1.840586   0.000000
    11  O    2.987710   4.002951   2.261707   2.601944   2.572414
    12  O    4.167146   4.945838   2.986477   3.276857   2.870115
                   11         12
    11  O    0.000000
    12  O    1.249152   0.000000
 Stoichiometry    C3H7O2(2)
 Framework group  C1[X(C3H7O2)]
 Deg. of freedom    30
 Full point group                 C1      NOp   1
 Largest Abelian subgroup         C1      NOp   1
 Largest concise Abelian subgroup C1      NOp   1
                         Standard orientation:                         
 ---------------------------------------------------------------------
 Center     Atomic      Atomic             Coordinates (Angstroms)
 Number     Number       Type             X           Y           Z
 ---------------------------------------------------------------------
      1          6           0       -1.790869   -0.952009    0.164845
      2          1           0       -0.964636   -1.627628   -0.076840
      3          1           0       -2.696160   -1.329195   -0.322191
      4          1           0       -1.951384   -0.989767    1.248821
      5          6           0       -1.473946    0.475396   -0.295064
      6          1           0       -1.354888    0.510047   -1.387141
      7          1           0       -2.335379    1.134130   -0.080054
      8          6           0       -0.263957    1.062169    0.344219
      9          1           0        0.112131    2.018757   -0.007351
     10          1           0       -0.017622    0.806171    1.371256
     11          8           0        1.423666   -0.168372   -0.523545
     12          8           0        2.373905   -0.336109    0.269733
 ---------------------------------------------------------------------
 Rotational constants (GHZ):      9.2042874      2.2946196      2.0423345
 Leave Link  202 at Wed Apr  1 01:17:04 2015, MaxMem= 3758096384 cpu:       0.1
 (Enter /share/apps/g09/l301.exe)
 Standard basis: 6-31G(d) (6D, 7F)
 Ernie: Thresh=  0.10000D-02 Tol=  0.10000D-05 Strict=F.
 There are    89 symmetry adapted basis functions of A   symmetry.
 Integral buffers will be    131072 words long.
 Raffenetti 2 integral format.
 Two-electron integral symmetry is turned on.
    89 basis functions,   168 primitive gaussians,    89 cartesian basis functions
    21 alpha electrons       20 beta electrons
       nuclear repulsion energy       167.9645061506 Hartrees.
 IExCor=  402 DFT=T Ex+Corr=B3LYP ExCW=0 ScaHFX=  0.200000
 ScaDFX=  0.800000  0.720000  1.000000  0.810000 ScalE2=  1.000000  1.000000
 IRadAn=      0 IRanWt=     -1 IRanGd=            0 ICorTp=0
 NAtoms=   12 NActive=   12 NUniq=   12 SFac= 7.50D-01 NAtFMM=   80 NAOKFM=F Big=F
 Leave Link  301 at Wed Apr  1 01:17:04 2015, MaxMem= 3758096384 cpu:       0.5
 (Enter /share/apps/g09/l302.exe)
 NPDir=0 NMtPBC=     1 NCelOv=     1 NCel=       1 NClECP=     1 NCelD=      1
         NCelK=      1 NCelE2=     1 NClLst=     1 CellRange=     0.0.
 One-electron integrals computed using PRISM.
 NBasis=    89 RedAO= T  NBF=    89
 NBsUse=    89 1.00D-06 NBFU=    89
 Precomputing XC quadrature grid using
 IXCGrd= 2 IRadAn=           0 IRanWt=          -1 IRanGd=           0 AccXCQ= 1.00D-10.
 NRdTot=     742 NPtTot=       94340 NUsed=       99703 NTot=       99735
 NSgBfM=    89    89    89    89    89 NAtAll=    12    12.
 Leave Link  302 at Wed Apr  1 01:17:05 2015, MaxMem= 3758096384 cpu:       3.7
 (Enter /share/apps/g09/l303.exe)
 DipDrv:  MaxL=1.
 Leave Link  303 at Wed Apr  1 01:17:05 2015, MaxMem= 3758096384 cpu:       0.3
 (Enter /share/apps/g09/l401.exe)
 Harris functional with IExCor=  402 diagonalized for initial guess.
 ExpMin= 1.61D-01 ExpMax= 5.48D+03 ExpMxC= 8.25D+02 IAcc=1 IRadAn=         1 AccDes= 0.00D+00
 HarFok:  IExCor=  402 AccDes= 0.00D+00 IRadAn=         1 IDoV= 1
 ScaDFX=  1.000000  1.000000  1.000000  1.000000
 FoFCou: FMM=F IPFlag=           0 FMFlag=      100000 FMFlg1=           0
         NFxFlg=           0 DoJE=T BraDBF=F KetDBF=T FulRan=T
         Omega=  0.000000  0.000000  1.000000  0.000000  0.000000 ICntrl=     500 IOpCl=  0
         NMat0=    1 NMatS0=    1 NMatT0=    0 NMatD0=    1 NMtDS0=    0 NMtDT0=    0
         I1Cent=           4 NGrid=           0.
 Petite list used in FoFCou.
 Harris En= -268.830945613474    
 Initial guess orbital symmetries:
 Alpha Orbitals:
       Occupied  (A) (A) (A) (A) (A) (A) (A) (A) (A) (A) (A) (A)
                 (A) (A) (A) (A) (A) (A) (A) (A) (A)
       Virtual   (A) (A) (A) (A) (A) (A) (A) (A) (A) (A) (A) (A)
                 (A) (A) (A) (A) (A) (A) (A) (A) (A) (A) (A) (A)
                 (A) (A) (A) (A) (A) (A) (A) (A) (A) (A) (A) (A)
                 (A) (A) (A) (A) (A) (A) (A) (A) (A) (A) (A) (A)
                 (A) (A) (A) (A) (A) (A) (A) (A) (A) (A) (A) (A)
                 (A) (A) (A) (A) (A) (A) (A) (A)
 Beta  Orbitals:
       Occupied  (A) (A) (A) (A) (A) (A) (A) (A) (A) (A) (A) (A)
                 (A) (A) (A) (A) (A) (A) (A) (A)
       Virtual   (A) (A) (A) (A) (A) (A) (A) (A) (A) (A) (A) (A)
                 (A) (A) (A) (A) (A) (A) (A) (A) (A) (A) (A) (A)
                 (A) (A) (A) (A) (A) (A) (A) (A) (A) (A) (A) (A)
                 (A) (A) (A) (A) (A) (A) (A) (A) (A) (A) (A) (A)
                 (A) (A) (A) (A) (A) (A) (A) (A) (A) (A) (A) (A)
                 (A) (A) (A) (A) (A) (A) (A) (A) (A)
 The electronic state of the initial guess is 2-A.
 Initial guess <Sx>= 0.0000 <Sy>= 0.0000 <Sz>= 0.5000 <S**2>= 0.7500 S= 0.5000
 Leave Link  401 at Wed Apr  1 01:17:05 2015, MaxMem= 3758096384 cpu:       3.3
 (Enter /share/apps/g09/l508.exe)
 Direct SCF.
 Tight linear equation convergence will be used.
 UB3LYP wavefunction.
 Quadratic Convergence SCF Method.
 Line search only if initial step raises energy.
 Integral symmetry usage will be decided dynamically.
 ReadGW:  IGet=1 IStart=           2 Next=       99584 LGW=       99582.
 Pruned (  75, 302) grid will be used in CalDFT.
 Keep R1 and R2 ints in memory in canonical form, NReq=17125503.
 Symmetry not used in FoFDir.
 MinBra= 0 MaxBra= 2 Meth= 1.
 IRaf=       0 NMat=   1 IRICut=       1 DoRegI=T DoRafI=F ISym2E= 0 JSym2E=0.
 Iteration   1 EE= -268.563240744394                                    Grad=6.293D-01
 Gradient too large for Newton-Raphson -- use scaled steepest descent instead.
     ILin= 1 X=0.000D+00 Y=-2.685632407444D+02 DE= 0.00D+00
     ILin= 2 X=3.000D-01 Y=-2.686849918884D+02 DE=-1.22D-01
     ILin= 3 X=4.243D-01 Y=-2.685583416652D+02 DE= 4.90D-03
     An  expanding polynomial of degree  3 produced  0.2104
 Iteration   2 EE= -268.732367036006     Delta-E=       -0.169126291612 Grad=3.199D-01
 Gradient too large for Newton-Raphson -- use scaled steepest descent instead.
     ILin= 1 X=0.000D+00 Y=-2.687323670360D+02 DE= 0.00D+00
     ILin= 2 X=3.000D-01 Y=-2.687713628687D+02 DE=-3.90D-02
     ILin= 3 X=4.243D-01 Y=-2.687549689075D+02 DE=-2.26D-02
     An  expanding polynomial of degree  3 produced  0.2553
 Iteration   3 EE= -268.772445614847     Delta-E=       -0.040078578841 Grad=1.704D-01
 Gradient too large for Newton-Raphson -- use scaled steepest descent instead.
     ILin= 1 X=0.000D+00 Y=-2.687724456148D+02 DE= 0.00D+00
     ILin= 2 X=2.553D-01 Y=-2.687831382005D+02 DE=-1.07D-02
     ILin= 3 X=3.610D-01 Y=-2.687834472961D+02 DE=-1.10D-02
     ILin= 4 X=5.106D-01 Y=-2.687799578155D+02 DE=-7.51D-03
     An  expanding polynomial of degree  4 produced  0.3220
 Iteration   4 EE= -268.783606299106     Delta-E=       -0.011160684259 Grad=9.753D-02
 Gradient too large for Newton-Raphson -- use scaled steepest descent instead.
     ILin= 1 X=0.000D+00 Y=-2.687836062991D+02 DE= 0.00D+00
     ILin= 2 X=3.220D-01 Y=-2.687865336104D+02 DE=-2.93D-03
     ILin= 3 X=4.554D-01 Y=-2.687848642241D+02 DE=-1.26D-03
     An  expanding polynomial of degree  3 produced  0.2568
 Iteration   5 EE= -268.786729365105     Delta-E=       -0.003123065999 Grad=6.483D-02
 Gradient too large for Newton-Raphson -- use scaled steepest descent instead.
     ILin= 1 X=0.000D+00 Y=-2.687867293651D+02 DE= 0.00D+00
     ILin= 2 X=3.220D-01 Y=-2.687882380047D+02 DE=-1.51D-03
     ILin= 3 X=4.554D-01 Y=-2.687882648556D+02 DE=-1.54D-03
     ILin= 4 X=6.440D-01 Y=-2.687877240497D+02 DE=-9.95D-04
     An  expanding polynomial of degree  4 produced  0.3990
 Iteration   6 EE= -268.788295416220     Delta-E=       -0.001566051115 Grad=4.320D-02
 Gradient too large for Newton-Raphson -- use scaled steepest descent instead.
     ILin= 1 X=0.000D+00 Y=-2.687882954162D+02 DE= 0.00D+00
     ILin= 2 X=3.990D-01 Y=-2.687890023596D+02 DE=-7.07D-04
     ILin= 3 X=5.643D-01 Y=-2.687883416327D+02 DE=-4.62D-05
     An  expanding polynomial of degree  3 produced  0.2861
 Iteration   7 EE= -268.789131156523     Delta-E=       -0.000835740304 Grad=3.044D-02
 Gradient too large for Newton-Raphson -- use scaled steepest descent instead.
     ILin= 1 X=0.000D+00 Y=-2.687891311565D+02 DE= 0.00D+00
     ILin= 2 X=3.990D-01 Y=-2.687897745699D+02 DE=-6.43D-04
     ILin= 3 X=5.643D-01 Y=-2.687897884880D+02 DE=-6.57D-04
     ILin= 4 X=7.980D-01 Y=-2.687895654233D+02 DE=-4.34D-04
     An  expanding polynomial of degree  4 produced  0.4974
 Iteration   8 EE= -268.789800255996     Delta-E=       -0.000669099473 Grad=2.570D-02
 Gradient too large for Newton-Raphson -- use scaled steepest descent instead.
     ILin= 1 X=0.000D+00 Y=-2.687898002560D+02 DE= 0.00D+00
     ILin= 2 X=4.974D-01 Y=-2.687901954525D+02 DE=-3.95D-04
     ILin= 3 X=7.034D-01 Y=-2.687894304494D+02 DE= 3.70D-04
     An  expanding polynomial of degree  3 produced  0.3107
 Iteration   9 EE= -268.790417469026     Delta-E=       -0.000617213030 Grad=2.034D-02
 Gradient too large for Newton-Raphson -- use scaled steepest descent instead.
     ILin= 1 X=0.000D+00 Y=-2.687904174690D+02 DE= 0.00D+00
     ILin= 2 X=3.107D-01 Y=-2.687909571495D+02 DE=-5.40D-04
     ILin= 3 X=4.394D-01 Y=-2.687910644393D+02 DE=-6.47D-04
     ILin= 4 X=6.214D-01 Y=-2.687911039499D+02 DE=-6.86D-04
     ILin= 5 X=8.788D-01 Y=-2.687909432288D+02 DE=-5.26D-04
     An  expanding polynomial of degree  5 produced  0.5858
 Iteration  10 EE= -268.791106392974     Delta-E=       -0.000688923948 Grad=2.565D-02
 Gradient too large for Newton-Raphson -- use scaled steepest descent instead.
     ILin= 1 X=0.000D+00 Y=-2.687911063930D+02 DE= 0.00D+00
     ILin= 2 X=5.858D-01 Y=-2.687913195391D+02 DE=-2.13D-04
     ILin= 3 X=8.285D-01 Y=-2.687898372129D+02 DE= 1.27D-03
     An  expanding polynomial of degree  3 produced  0.3162
 Iteration  11 EE= -268.791889033068     Delta-E=       -0.000782640094 Grad=2.076D-02
 Gradient too large for Newton-Raphson -- use scaled steepest descent instead.
     ILin= 1 X=0.000D+00 Y=-2.687918890331D+02 DE= 0.00D+00
     ILin= 2 X=3.162D-01 Y=-2.687925406416D+02 DE=-6.52D-04
     ILin= 3 X=4.472D-01 Y=-2.687926866805D+02 DE=-7.98D-04
     ILin= 4 X=6.324D-01 Y=-2.687927742082D+02 DE=-8.85D-04
     ILin= 5 X=8.943D-01 Y=-2.687926693396D+02 DE=-7.80D-04
     An  expanding polynomial of degree  5 produced  0.6590
 Iteration  12 EE= -268.792775592889     Delta-E=       -0.000886559821 Grad=2.865D-02
 Gradient too large for Newton-Raphson -- use scaled steepest descent instead.
     ILin= 1 X=0.000D+00 Y=-2.687927755929D+02 DE= 0.00D+00
     ILin= 2 X=6.590D-01 Y=-2.687926942601D+02 DE= 8.13D-05
     ILin= 3 X=4.660D-01 Y=-2.687935531315D+02 DE=-7.78D-04
     A contracting polynomial of degree  3 produced  0.3229
 Iteration  13 EE= -268.793745810886     Delta-E=       -0.000970217997 Grad=2.192D-02
 Gradient too large for Newton-Raphson -- use scaled steepest descent instead.
     ILin= 1 X=0.000D+00 Y=-2.687937458109D+02 DE= 0.00D+00
     ILin= 2 X=3.229D-01 Y=-2.687944356442D+02 DE=-6.90D-04
     ILin= 3 X=4.566D-01 Y=-2.687946037860D+02 DE=-8.58D-04
     ILin= 4 X=6.457D-01 Y=-2.687947285265D+02 DE=-9.83D-04
     ILin= 5 X=9.132D-01 Y=-2.687946874439D+02 DE=-9.42D-04
     An  expanding polynomial of degree  5 produced  0.7349
 Iteration  14 EE= -268.794742609425     Delta-E=       -0.000996798539 Grad=2.908D-02
 Gradient too large for Newton-Raphson -- use scaled steepest descent instead.
     ILin= 1 X=0.000D+00 Y=-2.687947426094D+02 DE= 0.00D+00
     ILin= 2 X=7.349D-01 Y=-2.687943574569D+02 DE= 3.85D-04
     ILin= 3 X=5.197D-01 Y=-2.687954164586D+02 DE=-6.74D-04
     A contracting polynomial of degree  3 produced  0.3365
 Iteration  15 EE= -268.795707431947     Delta-E=       -0.000964822522 Grad=2.067D-02
 Gradient too large for Newton-Raphson -- use scaled steepest descent instead.
     ILin= 1 X=0.000D+00 Y=-2.687957074319D+02 DE= 0.00D+00
     ILin= 2 X=3.365D-01 Y=-2.687962745924D+02 DE=-5.67D-04
     ILin= 3 X=4.759D-01 Y=-2.687964177834D+02 DE=-7.10D-04
     ILin= 4 X=6.730D-01 Y=-2.687965314702D+02 DE=-8.24D-04
     ILin= 5 X=9.517D-01 Y=-2.687965200499D+02 DE=-8.13D-04
     An  expanding polynomial of degree  5 produced  0.7958
 Iteration  16 EE= -268.796550889376     Delta-E=       -0.000843457428 Grad=2.504D-02
 Gradient too large for Newton-Raphson -- use scaled steepest descent instead.
     ILin= 1 X=0.000D+00 Y=-2.687965508894D+02 DE= 0.00D+00
     ILin= 2 X=7.958D-01 Y=-2.687961571187D+02 DE= 3.94D-04
     ILin= 3 X=5.627D-01 Y=-2.687969924525D+02 DE=-4.42D-04
     A contracting polynomial of degree  3 produced  0.3528
 Iteration  17 EE= -268.797240866759     Delta-E=       -0.000689977384 Grad=1.665D-02
 Gradient too large for Newton-Raphson -- use scaled steepest descent instead.
     ILin= 1 X=0.000D+00 Y=-2.687972408668D+02 DE= 0.00D+00
     ILin= 2 X=3.528D-01 Y=-2.687975806856D+02 DE=-3.40D-04
     ILin= 3 X=4.990D-01 Y=-2.687976660553D+02 DE=-4.25D-04
     ILin= 4 X=7.057D-01 Y=-2.687977325472D+02 DE=-4.92D-04
     ILin= 5 X=9.980D-01 Y=-2.687977202183D+02 DE=-4.79D-04
     An  expanding polynomial of degree  5 produced  0.8223
 Iteration  18 EE= -268.797742419502     Delta-E=       -0.000501552743 Grad=1.826D-02
 Gradient too large for Newton-Raphson -- use scaled steepest descent instead.
     ILin= 1 X=0.000D+00 Y=-2.687977424195D+02 DE= 0.00D+00
     ILin= 2 X=8.223D-01 Y=-2.687975330562D+02 DE= 2.09D-04
     ILin= 3 X=5.814D-01 Y=-2.687979625474D+02 DE=-2.20D-04
     A contracting polynomial of degree  3 produced  0.3627
 Iteration  19 EE= -268.798090645133     Delta-E=       -0.000348225632 Grad=1.157D-02
 Gradient too large for Newton-Raphson -- use scaled steepest descent instead.
     ILin= 1 X=0.000D+00 Y=-2.687980906451D+02 DE= 0.00D+00
     ILin= 2 X=3.627D-01 Y=-2.687982424254D+02 DE=-1.52D-04
     ILin= 3 X=5.130D-01 Y=-2.687982792409D+02 DE=-1.89D-04
     ILin= 4 X=7.254D-01 Y=-2.687983054998D+02 DE=-2.15D-04
     ILin= 5 X=1.026D+00 Y=-2.687982914762D+02 DE=-2.01D-04
     An  expanding polynomial of degree  5 produced  0.8050
 Iteration  20 EE= -268.798307597897     Delta-E=       -0.000216952764 Grad=1.219D-02
 Gradient too large for Newton-Raphson -- use scaled steepest descent instead.
     ILin= 1 X=0.000D+00 Y=-2.687983075979D+02 DE= 0.00D+00
     ILin= 2 X=8.050D-01 Y=-2.687982347789D+02 DE= 7.28D-05
     ILin= 3 X=5.692D-01 Y=-2.687983965051D+02 DE=-8.89D-05
     A contracting polynomial of degree  3 produced  0.3593
 Iteration  21 EE= -268.798442890817     Delta-E=       -0.000135292920 Grad=7.331D-03
 QCNR:  CnvC1=5.30D-09 CnvC2=5.30D-08
 LinEq1:  Iter=  0 NonCon=     1 RMS=3.56D-04 Max=1.51D-02
 AX will form     1 AO Fock derivatives at one time.
 LinEq1:  Iter=  1 NonCon=     1 RMS=6.14D-04 Max=2.73D-02
 LinEq1:  Iter=  2 NonCon=     1 RMS=9.66D-05 Max=2.66D-03
 LinEq1:  Iter=  3 NonCon=     1 RMS=3.42D-05 Max=8.62D-04
 LinEq1:  Iter=  4 NonCon=     1 RMS=5.95D-06 Max=7.41D-05
 LinEq1:  Iter=  5 NonCon=     1 RMS=2.84D-06 Max=3.75D-05
 LinEq1:  Iter=  6 NonCon=     1 RMS=8.96D-07 Max=1.24D-05
 LinEq1:  Iter=  7 NonCon=     1 RMS=3.77D-07 Max=7.19D-06
 LinEq1:  Iter=  8 NonCon=     1 RMS=2.11D-07 Max=4.38D-06
 LinEq1:  Iter=  9 NonCon=     1 RMS=9.13D-08 Max=2.26D-06
 LinEq1:  Iter= 10 NonCon=     1 RMS=3.94D-08 Max=9.68D-07
 LinEq1:  Iter= 11 NonCon=     1 RMS=1.10D-08 Max=1.21D-07
 LinEq1:  Iter= 12 NonCon=     0 RMS=3.96D-09 Max=2.78D-08
 Linear equations converged to 5.299D-09 5.299D-08 after    12 iterations.
 Angle between quadratic step and gradient=  56.11 degrees.
     ILin= 1 X=0.000D+00 Y=-2.687984428908D+02 DE= 0.00D+00
     ILin= 2 X=1.000D+00 Y=-2.687986337335D+02 DE=-1.91D-04
     ILin= 3 X=1.414D+00 Y=-2.687985771439D+02 DE=-1.34D-04
     An  expanding polynomial of degree  3 produced  0.9121
 Iteration  22 EE= -268.798635040455     Delta-E=       -0.000192149638 Grad=7.031D-04
 QCNR:  CnvC1=5.30D-09 CnvC2=5.30D-08
 LinEq1:  Iter=  0 NonCon=     1 RMS=2.96D-05 Max=1.23D-03
 LinEq1:  Iter=  1 NonCon=     1 RMS=1.57D-05 Max=2.37D-04
 LinEq1:  Iter=  2 NonCon=     1 RMS=2.18D-05 Max=7.16D-04
 LinEq1:  Iter=  3 NonCon=     1 RMS=1.37D-05 Max=6.33D-04
 LinEq1:  Iter=  4 NonCon=     1 RMS=2.69D-06 Max=3.04D-05
 LinEq1:  Iter=  5 NonCon=     1 RMS=1.16D-06 Max=1.22D-05
 LinEq1:  Iter=  6 NonCon=     1 RMS=6.64D-07 Max=7.53D-06
 LinEq1:  Iter=  7 NonCon=     1 RMS=2.33D-07 Max=2.71D-06
 LinEq1:  Iter=  8 NonCon=     1 RMS=1.14D-07 Max=1.24D-06
 LinEq1:  Iter=  9 NonCon=     1 RMS=4.37D-08 Max=5.45D-07
 LinEq1:  Iter= 10 NonCon=     1 RMS=1.62D-08 Max=2.43D-07
 LinEq1:  Iter= 11 NonCon=     1 RMS=8.11D-09 Max=8.41D-08
 LinEq1:  Iter= 12 NonCon=     1 RMS=3.56D-09 Max=5.70D-08
 LinEq1:  Iter= 13 NonCon=     0 RMS=1.30D-09 Max=3.62D-08
 Linear equations converged to 5.299D-09 5.299D-08 after    13 iterations.
 Angle between quadratic step and gradient=  44.54 degrees.
     ILin= 1 X=0.000D+00 Y=-2.687986350405D+02 DE= 0.00D+00
     ILin= 2 X=1.000D+00 Y=-2.687986353150D+02 DE=-2.75D-07
     ILin= 3 X=1.414D+00 Y=-2.687986352679D+02 DE=-2.27D-07
     An  expanding polynomial of degree  3 produced  1.0000
 Iteration  23 EE= -268.798635314963     Delta-E=       -0.000000274508 Grad=7.714D-08
 Rotation gradient small -- convergence achieved.
 SCF Done:  E(UB3LYP) =  -268.798635315     a.u. after   23 cycles
            Convg  =    0.7714D-07                   107 Fock formations.
              S**2 =  1.2754                  -V/T =  2.0094
 <Sx>= 0.0000 <Sy>= 0.0000 <Sz>= 0.5000 <S**2>= 1.2754 S= 0.7351
 <L.S>= 0.000000000000E+00
 Annihilation of the first spin contaminant:
 S**2 before annihilation     1.2754,   after     0.7597
 Leave Link  508 at Wed Apr  1 01:17:47 2015, MaxMem= 3758096384 cpu:     468.5
 (Enter /share/apps/g09/l601.exe)
 Copying SCF densities to generalized density rwf, IOpCl= 1 IROHF=0.

 **********************************************************************

            Population analysis using the SCF density.

 **********************************************************************

 Orbital symmetries:
 Alpha Orbitals:
       Occupied  (A) (A) (A) (A) (A) (A) (A) (A) (A) (A) (A) (A)
                 (A) (A) (A) (A) (A) (A) (A) (A) (A)
       Virtual   (A) (A) (A) (A) (A) (A) (A) (A) (A) (A) (A) (A)
                 (A) (A) (A) (A) (A) (A) (A) (A) (A) (A) (A) (A)
                 (A) (A) (A) (A) (A) (A) (A) (A) (A) (A) (A) (A)
                 (A) (A) (A) (A) (A) (A) (A) (A) (A) (A) (A) (A)
                 (A) (A) (A) (A) (A) (A) (A) (A) (A) (A) (A) (A)
                 (A) (A) (A) (A) (A) (A) (A) (A)
 Beta  Orbitals:
       Occupied  (A) (A) (A) (A) (A) (A) (A) (A) (A) (A) (A) (A)
                 (A) (A) (A) (A) (A) (A) (A) (A)
       Virtual   (A) (A) (A) (A) (A) (A) (A) (A) (A) (A) (A) (A)
                 (A) (A) (A) (A) (A) (A) (A) (A) (A) (A) (A) (A)
                 (A) (A) (A) (A) (A) (A) (A) (A) (A) (A) (A) (A)
                 (A) (A) (A) (A) (A) (A) (A) (A) (A) (A) (A) (A)
                 (A) (A) (A) (A) (A) (A) (A) (A) (A) (A) (A) (A)
                 (A) (A) (A) (A) (A) (A) (A) (A) (A)
 The electronic state is 2-A.
 Alpha  occ. eigenvalues --  -19.26957 -19.24185 -10.21507 -10.20285 -10.18278
 Alpha  occ. eigenvalues --   -1.21995  -0.80142  -0.78455  -0.67735  -0.58881
 Alpha  occ. eigenvalues --   -0.50011  -0.49484  -0.48698  -0.46134  -0.44725
 Alpha  occ. eigenvalues --   -0.41772  -0.36355  -0.36083  -0.35390  -0.26683
 Alpha  occ. eigenvalues --   -0.25738
 Alpha virt. eigenvalues --   -0.04966   0.09415   0.13571   0.13897   0.14799
 Alpha virt. eigenvalues --    0.16244   0.18032   0.19018   0.20918   0.23046
 Alpha virt. eigenvalues --    0.26884   0.49433   0.50433   0.53753   0.55679
 Alpha virt. eigenvalues --    0.58774   0.63002   0.66179   0.69349   0.75476
 Alpha virt. eigenvalues --    0.76711   0.80036   0.81258   0.84796   0.86222
 Alpha virt. eigenvalues --    0.88755   0.90022   0.91565   0.93112   0.94948
 Alpha virt. eigenvalues --    0.96270   0.97454   1.01561   1.03267   1.12402
 Alpha virt. eigenvalues --    1.24902   1.39758   1.43762   1.50294   1.51984
 Alpha virt. eigenvalues --    1.54840   1.56257   1.62905   1.70950   1.74682
 Alpha virt. eigenvalues --    1.86290   1.91681   1.92699   1.94115   1.98576
 Alpha virt. eigenvalues --    2.02078   2.08893   2.16897   2.24225   2.32123
 Alpha virt. eigenvalues --    2.35522   2.39084   2.42051   2.54731   2.56146
 Alpha virt. eigenvalues --    2.60362   2.67407   2.89787   3.28172   3.64701
 Alpha virt. eigenvalues --    4.12872   4.27348   4.45255
  Beta  occ. eigenvalues --  -19.24517 -19.21764 -10.22541 -10.20229 -10.18288
  Beta  occ. eigenvalues --   -1.17045  -0.79997  -0.72330  -0.68730  -0.59696
  Beta  occ. eigenvalues --   -0.47420  -0.46426  -0.44797  -0.42915  -0.41073
  Beta  occ. eigenvalues --   -0.40067  -0.36589  -0.36474  -0.35555  -0.20724
  Beta virt. eigenvalues --   -0.08006  -0.07501   0.09263   0.12920   0.13670
  Beta virt. eigenvalues --    0.14589   0.16238   0.17851   0.18845   0.22394
  Beta virt. eigenvalues --    0.24484   0.26486   0.49267   0.50335   0.53682
  Beta virt. eigenvalues --    0.54734   0.57406   0.61244   0.66058   0.69348
  Beta virt. eigenvalues --    0.76288   0.77373   0.80855   0.82966   0.86064
  Beta virt. eigenvalues --    0.86492   0.89202   0.91208   0.92655   0.93574
  Beta virt. eigenvalues --    0.96063   0.97124   0.97618   1.02394   1.06577
  Beta virt. eigenvalues --    1.13298   1.26324   1.40072   1.43905   1.51807
  Beta virt. eigenvalues --    1.52918   1.57188   1.58951   1.65687   1.68525
  Beta virt. eigenvalues --    1.77394   1.85157   1.90663   1.91882   1.97608
  Beta virt. eigenvalues --    2.00509   2.03694   2.09341   2.14725   2.24011
  Beta virt. eigenvalues --    2.31792   2.34696   2.41431   2.41986   2.58432
  Beta virt. eigenvalues --    2.59053   2.60049   2.67108   2.91904   3.31784
  Beta virt. eigenvalues --    3.68213   4.12068   4.26148   4.44798
          Condensed to atoms (all electrons):
              1          2          3          4          5          6
     1  C    5.059780   0.381349   0.372960   0.378091   0.376546  -0.035502
     2  H    0.381349   0.542783  -0.028512  -0.030376  -0.034678  -0.004174
     3  H    0.372960  -0.028512   0.567441  -0.030404  -0.028704  -0.002760
     4  H    0.378091  -0.030376  -0.030404   0.570694  -0.035377   0.004870
     5  C    0.376546  -0.034678  -0.028704  -0.035377   4.940782   0.378309
     6  H   -0.035502  -0.004174  -0.002760   0.004870   0.378309   0.576704
     7  H   -0.038135   0.004882  -0.002606  -0.004305   0.365497  -0.039160
     8  C   -0.046084  -0.003629   0.004488  -0.004411   0.376819  -0.042452
     9  H    0.004020   0.000041  -0.000155  -0.000005  -0.031634  -0.002970
    10  H   -0.005273   0.000023   0.000010   0.004356  -0.036630   0.004784
    11  O   -0.001679   0.004887   0.000028  -0.000051  -0.002990  -0.000065
    12  O    0.000085  -0.000158  -0.000001   0.000007   0.000372   0.000030
              7          8          9         10         11         12
     1  C   -0.038135  -0.046084   0.004020  -0.005273  -0.001679   0.000085
     2  H    0.004882  -0.003629   0.000041   0.000023   0.004887  -0.000158
     3  H   -0.002606   0.004488  -0.000155   0.000010   0.000028  -0.000001
     4  H   -0.004305  -0.004411  -0.000005   0.004356  -0.000051   0.000007
     5  C    0.365497   0.376819  -0.031634  -0.036630  -0.002990   0.000372
     6  H   -0.039160  -0.042452  -0.002970   0.004784  -0.000065   0.000030
     7  H    0.600073  -0.041731  -0.000513  -0.000352   0.000360  -0.000018
     8  C   -0.041731   5.232282   0.362800   0.363123   0.048504  -0.019456
     9  H   -0.000513   0.362800   0.540141  -0.034817  -0.003283   0.000484
    10  H   -0.000352   0.363123  -0.034817   0.537534  -0.005300   0.003652
    11  O    0.000360   0.048504  -0.003283  -0.005300   7.935905   0.097318
    12  O   -0.000018  -0.019456   0.000484   0.003652   0.097318   8.015187
 Mulliken atomic charges:
              1
     1  C   -0.446159
     2  H    0.167562
     3  H    0.148214
     4  H    0.146910
     5  C   -0.268312
     6  H    0.162386
     7  H    0.156007
     8  C   -0.230252
     9  H    0.165891
    10  H    0.168891
    11  O   -0.073634
    12  O   -0.097504
 Sum of Mulliken atomic charges =   0.00000
 Mulliken charges with hydrogens summed into heavy atoms:
              1
     1  C    0.016527
     5  C    0.050081
     8  C    0.104530
    11  O   -0.073634
    12  O   -0.097504
 Sum of Mulliken charges with hydrogens summed into heavy atoms =   0.00000
          Atomic-Atomic Spin Densities.
              1          2          3          4          5          6
     1  C   -0.006430   0.001127   0.000795  -0.000118  -0.004498  -0.003636
     2  H    0.001127  -0.001117  -0.000523   0.000601   0.000473   0.000612
     3  H    0.000795  -0.000523   0.000982   0.000228  -0.000413   0.000414
     4  H   -0.000118   0.000601   0.000228  -0.000458  -0.000546  -0.000230
     5  C   -0.004498   0.000473  -0.000413  -0.000546   0.037962  -0.004673
     6  H   -0.003636   0.000612   0.000414  -0.000230  -0.004673  -0.025801
     7  H    0.004640  -0.000389  -0.000843   0.000991  -0.009109   0.010194
     8  C    0.005647  -0.002263  -0.000192   0.000227   0.032406   0.011012
     9  H   -0.000046   0.000031   0.000002  -0.000020  -0.000676  -0.001039
    10  H   -0.000672   0.000106   0.000035  -0.000287  -0.001281  -0.000390
    11  O   -0.000395   0.000986   0.000013   0.000002  -0.001328  -0.000737
    12  O    0.000045  -0.000280  -0.000001  -0.000006  -0.000019   0.000000
              7          8          9         10         11         12
     1  C    0.004640   0.005647  -0.000046  -0.000672  -0.000395   0.000045
     2  H   -0.000389  -0.002263   0.000031   0.000106   0.000986  -0.000280
     3  H   -0.000843  -0.000192   0.000002   0.000035   0.000013  -0.000001
     4  H    0.000991   0.000227  -0.000020  -0.000287   0.000002  -0.000006
     5  C   -0.009109   0.032406  -0.000676  -0.001281  -0.001328  -0.000019
     6  H    0.010194   0.011012  -0.001039  -0.000390  -0.000737   0.000000
     7  H   -0.065975   0.018549   0.001053   0.001169   0.000049   0.000004
     8  C    0.018549  -0.840325   0.008374   0.011553   0.008677   0.007957
     9  H    0.001053   0.008374   0.028602  -0.002807  -0.001092   0.000034
    10  H    0.001169   0.011553  -0.002807   0.026244  -0.002943   0.000348
    11  O    0.000049   0.008677  -0.001092  -0.002943   1.090445  -0.257087
    12  O    0.000004   0.007957   0.000034   0.000348  -0.257087   1.096246
 Mulliken atomic spin densities:
              1
     1  C   -0.003541
     2  H   -0.000636
     3  H    0.000497
     4  H    0.000383
     5  C    0.048299
     6  H   -0.014274
     7  H   -0.039667
     8  C   -0.738379
     9  H    0.032415
    10  H    0.031075
    11  O    0.836589
    12  O    0.847240
 Sum of Mulliken atomic spin densities =   1.00000
 Electronic spatial extent (au):  <R**2>=            602.2983
 Charge=              0.0000 electrons
 Dipole moment (field-independent basis, Debye):
    X=             -2.2675    Y=              0.9813    Z=              0.2011  Tot=              2.4789
 Quadrupole moment (field-independent basis, Debye-Ang):
   XX=            -33.4048   YY=            -29.3340   ZZ=            -30.1725
   XY=              0.4681   XZ=              0.0553   YZ=              0.0304
 Traceless Quadrupole moment (field-independent basis, Debye-Ang):
   XX=             -2.4343   YY=              1.6364   ZZ=              0.7979
   XY=              0.4681   XZ=              0.0553   YZ=              0.0304
 Octapole moment (field-independent basis, Debye-Ang**2):
  XXX=              5.1385  YYY=              0.5255  ZZZ=             -0.3034  XYY=              5.7155
  XXY=              1.1333  XXZ=             -2.0396  XZZ=              4.4768  YZZ=             -0.4091
  YYZ=             -1.0012  XYZ=             -0.0390
 Hexadecapole moment (field-independent basis, Debye-Ang**3):
 XXXX=           -530.9145 YYYY=           -149.0310 ZZZZ=            -65.9597 XXXY=             -1.1760
 XXXZ=             -1.1783 YYYX=             -4.8044 YYYZ=             -0.5810 ZZZX=             -0.1491
 ZZZY=             -0.4755 XXYY=           -111.1293 XXZZ=            -97.9818 YYZZ=            -37.9984
 XXYZ=              0.8706 YYXZ=              0.3525 ZZXY=             -1.1266
 N-N= 1.679645061506D+02 E-N=-1.436646668020D+03  KE= 3.971171914192D+02
                          Isotropic Fermi Contact Couplings
        Atom                 a.u.       MegaHertz       Gauss      10(-4) cm-1
     1  C(13)             -0.00435      -4.88890      -1.74448      -1.63076
     2  H(1)               0.00031       1.40302       0.50063       0.46800
     3  H(1)               0.00038       1.68193       0.60016       0.56103
     4  H(1)               0.00023       1.00879       0.35996       0.33649
     5  C(13)              0.01589      17.86561       6.37489       5.95933
     6  H(1)              -0.00728     -32.53860     -11.61058     -10.85371
     7  H(1)              -0.02121     -94.79893     -33.82661     -31.62152
     8  C(13)             -0.11386    -128.00031     -45.67369     -42.69631
     9  H(1)               0.01026      45.85787      16.36323      15.29654
    10  H(1)               0.00992      44.35575      15.82723      14.79548
    11  O(17)              0.04061     -24.61503      -8.78325      -8.21069
    12  O(17)              0.11580     -70.19734     -25.04816     -23.41531
 --------------------------------------------------------
       Center         ----  Spin Dipole Couplings  ----
                      3XX-RR        3YY-RR        3ZZ-RR
 --------------------------------------------------------
     1   Atom        0.009821     -0.010690      0.000869
     2   Atom        0.013499     -0.009956     -0.003543
     3   Atom        0.003485     -0.003384     -0.000101
     4   Atom        0.004893     -0.005343      0.000450
     5   Atom       -0.002755      0.000792      0.001963
     6   Atom        0.009436      0.000649     -0.010086
     7   Atom       -0.005552      0.002387      0.003165
     8   Atom       -0.153745     -0.002920      0.156666
     9   Atom        0.015249     -0.033789      0.018540
    10   Atom        0.028228      0.021106     -0.049333
    11   Atom       -0.671257      1.019366     -0.348109
    12   Atom       -0.657718      1.276471     -0.618753
 --------------------------------------------------------
                        XY            XZ            YZ
 --------------------------------------------------------
     1   Atom       -0.006902     -0.001295      0.002523
     2   Atom        0.006075     -0.002080     -0.002165
     3   Atom       -0.001508     -0.000571     -0.000725
     4   Atom       -0.002851     -0.001000      0.002109
     5   Atom       -0.006345     -0.002680     -0.004589
     6   Atom       -0.005903     -0.004020     -0.005046
     7   Atom       -0.002032     -0.004654     -0.001712
     8   Atom        0.437885      0.330001     -0.274606
     9   Atom       -0.028444      0.023472      0.022220
    10   Atom        0.013380     -0.022350      0.020765
    11   Atom        0.383088     -1.393284      0.096004
    12   Atom        0.744328     -1.265469     -0.326684
 --------------------------------------------------------


 ---------------------------------------------------------------------------------
              Anisotropic Spin Dipole Couplings in Principal Axis System
 ---------------------------------------------------------------------------------

       Atom             a.u.   MegaHertz   Gauss  10(-4) cm-1        Axes

              Baa    -0.0131    -1.757    -0.627    -0.586  0.2777  0.9495 -0.1458
     1 C(13)  Bbb     0.0008     0.110     0.039     0.037  0.2082  0.0887  0.9741
              Bcc     0.0123     1.647     0.588     0.549  0.9378 -0.3009 -0.1730
 
              Baa    -0.0118    -6.275    -2.239    -2.093 -0.2138  0.9566  0.1979
     2 H(1)   Bbb    -0.0036    -1.899    -0.678    -0.634  0.1759 -0.1616  0.9711
              Bcc     0.0153     8.174     2.917     2.727  0.9609  0.2424 -0.1337
 
              Baa    -0.0039    -2.071    -0.739    -0.691  0.2117  0.9534  0.2148
     3 H(1)   Bbb     0.0000     0.020     0.007     0.007  0.0592 -0.2319  0.9709
              Bcc     0.0038     2.052     0.732     0.684  0.9755 -0.1929 -0.1056
 
              Baa    -0.0066    -3.497    -1.248    -1.166  0.2128  0.9436 -0.2538
     4 H(1)   Bbb     0.0005     0.267     0.095     0.089  0.3258  0.1763  0.9289
              Bcc     0.0061     3.230     1.152     1.077  0.9212 -0.2804 -0.2699
 
              Baa    -0.0097    -1.300    -0.464    -0.434  0.6986  0.5962  0.3955
     5 C(13)  Bbb     0.0028     0.377     0.134     0.126 -0.6167  0.2214  0.7555
              Bcc     0.0069     0.923     0.329     0.308 -0.3629  0.7717 -0.5223
 
              Baa    -0.0137    -7.291    -2.602    -2.432  0.2577  0.4140  0.8730
     6 H(1)   Bbb     0.0012     0.627     0.224     0.209  0.3412  0.8064 -0.4831
              Bcc     0.0125     6.664     2.378     2.223  0.9040 -0.4223 -0.0666
 
              Baa    -0.0082    -4.367    -1.558    -1.457  0.8864  0.2350  0.3989
     7 H(1)   Bbb     0.0028     1.479     0.528     0.493 -0.3264  0.9282  0.1786
              Bcc     0.0054     2.888     1.031     0.963 -0.3283 -0.2885  0.8994
 
              Baa    -0.7304   -98.016   -34.975   -32.695  0.6891 -0.5792 -0.4356
     8 C(13)  Bbb     0.3627    48.675    17.368    16.236 -0.1058 -0.6750  0.7302
              Bcc     0.3677    49.341    17.606    16.458  0.7169  0.4570  0.5264
 
              Baa    -0.0587   -31.327   -11.178   -10.450  0.4332  0.8226 -0.3682
     9 H(1)   Bbb     0.0181     9.647     3.442     3.218 -0.5466  0.5647  0.6183
              Bcc     0.0406    21.681     7.736     7.232  0.7166 -0.0666  0.6943
 
              Baa    -0.0620   -33.088   -11.807   -11.037  0.2693 -0.2740  0.9233
    10 H(1)   Bbb     0.0230    12.296     4.387     4.101 -0.4634  0.8036  0.3736
              Bcc     0.0390    20.792     7.419     6.936  0.8443  0.5284 -0.0894
 
              Baa    -1.9537   141.365    50.443    47.154  0.7466 -0.1173  0.6549
    11 O(17)  Bbb     0.7766   -56.196   -20.052   -18.745 -0.5081  0.5349  0.6751
              Bcc     1.1770   -85.169   -30.390   -28.409  0.4295  0.8367 -0.3397
 
              Baa    -1.9342   139.958    49.940    46.685  0.7294 -0.1002  0.6768
    12 O(17)  Bbb     0.1433   -10.366    -3.699    -3.458 -0.5324  0.5381  0.6535
              Bcc     1.7909  -129.591   -46.241   -43.227  0.4296  0.8369 -0.3391
 

 ---------------------------------------------------------------------------------

 No NMR shielding tensors so no spin-rotation constants.
 Leave Link  601 at Wed Apr  1 01:17:47 2015, MaxMem= 3758096384 cpu:       4.3
 (Enter /share/apps/g09/l701.exe)
 Compute integral first derivatives.
 ... and contract with generalized density number  0.
 Leave Link  701 at Wed Apr  1 01:17:47 2015, MaxMem= 3758096384 cpu:       4.2
 (Enter /share/apps/g09/l702.exe)
 L702 exits ... SP integral derivatives will be done elsewhere.
 Leave Link  702 at Wed Apr  1 01:17:48 2015, MaxMem= 3758096384 cpu:       0.1
 (Enter /share/apps/g09/l703.exe)
 Compute integral first derivatives, UseDBF=F ICtDFT=           0.
 Integral derivatives from FoFDir, PRISM(SPDF).
 Calling FoFJK, ICntrl=      2127 FMM=F ISym2X=0 I1Cent= 0 IOpClX= 1 NMat=1 NMatS=1 NMatT=0.
 FoFCou: FMM=F IPFlag=           0 FMFlag=      100000 FMFlg1=         800
         NFxFlg=           0 DoJE=F BraDBF=F KetDBF=F FulRan=T
         Omega=  0.000000  0.000000  1.000000  0.000000  0.000000 ICntrl=    2127 IOpCl=  1
         NMat0=    1 NMatS0=    1 NMatT0=    0 NMatD0=    1 NMtDS0=    0 NMtDT0=    0
         I1Cent=           0 NGrid=           0.
 Symmetry not used in FoFCou.
 Leave Link  703 at Wed Apr  1 01:17:49 2015, MaxMem= 3758096384 cpu:      13.1
 (Enter /share/apps/g09/l716.exe)
 Dipole        =-8.92112939D-01 3.86088986D-01 7.91062874D-02
 ***** Axes restored to original set *****
 -------------------------------------------------------------------
 Center     Atomic                   Forces (Hartrees/Bohr)
 Number     Number              X              Y              Z
 -------------------------------------------------------------------
      1        6          -0.000198613    0.000167350   -0.000179190
      2        1           0.000045923   -0.000138553   -0.000003030
      3        1          -0.000045847   -0.000134547    0.000029202
      4        1           0.000023279   -0.000000380    0.000016138
      5        6           0.001113567   -0.000238794   -0.000164071
      6        1          -0.000318073   -0.000157955   -0.000168965
      7        1          -0.000374737   -0.000037233   -0.000037487
      8        6           0.006566583   -0.004572892   -0.003423133
      9        1           0.000871059   -0.000418832   -0.000614611
     10        1           0.000758163   -0.000818362   -0.000228404
     11        8          -0.001273530    0.005342636    0.011338962
     12        8          -0.007167773    0.001007562   -0.006565409
 -------------------------------------------------------------------
 Cartesian Forces:  Max     0.011338962 RMS     0.003047571
 Leave Link  716 at Wed Apr  1 01:17:49 2015, MaxMem= 3758096384 cpu:       0.2
 (Enter /share/apps/g09/l103.exe)

 GradGradGradGradGradGradGradGradGradGradGradGradGradGradGradGradGradGrad
 Berny optimization.
 Internal  Forces:  Max     0.008354780 RMS     0.001391060
 Search for a local minimum.
 Step number   1 out of a maximum of   79
 All quantities printed in internal units (Hartrees-Bohrs-Radians)
 RMS Force = .11542D-02 SwitMx=.10000D-02 MixMth= 1
 Mixed Optimization -- RFO/linear search
 Second derivative matrix not updated -- first step.
     Eigenvalues ---    0.00395   0.01113   0.01432   0.02540   0.03031
     Eigenvalues ---    0.03592   0.04419   0.05037   0.05828   0.06488
     Eigenvalues ---    0.07933   0.08691   0.08770   0.11276   0.11919
     Eigenvalues ---    0.12743   0.14856   0.15522   0.17022   0.27474
     Eigenvalues ---    0.30057   0.31535   0.32137   0.32894   0.33076
     Eigenvalues ---    0.33783   0.34078   0.34241   0.772331000.00000
     Eigenvalues --- 1000.000001000.000001000.000001000.000001000.00000
     Eigenvalues --- 1000.000001000.000001000.000001000.000001000.00000
     Eigenvalues --- 1000.000001000.000001000.000001000.000001000.00000
     Eigenvalues --- 1000.000001000.000001000.000001000.000001000.00000
     Eigenvalues --- 1000.000001000.000001000.000001000.000001000.00000
     Eigenvalues --- 1000.000001000.000001000.000001000.000001000.00000
     Eigenvalues --- 1000.000001000.000001000.000001000.000001000.00000
     Eigenvalues --- 1000.000001000.000001000.000001000.00000
 RFO step:  Lambda=-1.91035552D-04 EMin= 3.95002414D-03
 Linear search not attempted -- first point.
 Iteration  1 RMS(Cart)=  0.00492422 RMS(Int)=  0.00005508
 Iteration  2 RMS(Cart)=  0.00003836 RMS(Int)=  0.00003538
 Iteration  3 RMS(Cart)=  0.00000000 RMS(Int)=  0.00003538
 Iteration  1 RMS(Cart)=  0.00000048 RMS(Int)=  0.00000065
 Variable       Old X    -DE/DX   Delta X   Delta X   Delta X     New X
                                 (Linear)    (Quad)   (Total)
    R1        2.06796  -0.00060   0.00000   0.00005   0.00006   2.06802
    R2        2.06925   0.00007   0.00000   0.00021   0.00021   2.06946
    R3        2.07198   0.00001   0.00000   0.00004   0.00004   2.07202
    R4        2.89655   0.00010   0.00000   0.00013   0.00014   2.89669
    R5        5.35595  -0.00043   0.00000  -0.00029  -0.00029   5.35566
    R6        2.07699   0.00013   0.00000   0.00038   0.00038   2.07737
    R7        2.08917   0.00026   0.00000   0.00079   0.00079   2.08997
    R8        2.81376   0.00040   0.00000   0.00064   0.00064   2.81441
    R9        2.05286   0.00123   0.00000   0.00063   0.00065   2.05351
   R10        2.05366   0.00051   0.00000   0.00087   0.00087   2.05453
   R11        4.27401  -0.00447   0.00000   0.00000   0.00000   4.27400
   R12        4.91696  -0.00277   0.00000  -0.03272  -0.03273   4.88423
   R13        4.86116  -0.00186   0.00000  -0.01213  -0.01213   4.84903
   R14        5.42373  -0.00199   0.00000  -0.00812  -0.00811   5.41562
   R15        2.36055  -0.00835   0.00000  -0.01177  -0.01177   2.34878
    A1        1.88948  -0.00005   0.00000  -0.00016  -0.00016   1.88932
    A2        1.88348   0.00022   0.00000  -0.00042  -0.00043   1.88305
    A3        1.93111  -0.00038   0.00000  -0.00056  -0.00056   1.93054
    A4        1.88266  -0.00007   0.00000  -0.00009  -0.00009   1.88256
    A5        1.93720   0.00015   0.00000   0.00155   0.00155   1.93876
    A6        1.93796   0.00013   0.00000  -0.00035  -0.00035   1.93761
    A7        1.93174  -0.00069   0.00000  -0.00057  -0.00058   1.93116
    A8        1.92825  -0.00022   0.00000  -0.00151  -0.00151   1.92674
    A9        1.91285  -0.00042   0.00000  -0.00218  -0.00218   1.91067
   A10        1.98907   0.00050   0.00000   0.00000   0.00001   1.98907
   A11        1.83264   0.00002   0.00000  -0.00124  -0.00125   1.83139
   A12        1.90303   0.00019   0.00000   0.00329   0.00329   1.90631
   A13        1.89113  -0.00011   0.00000   0.00159   0.00159   1.89272
   A14        2.08220   0.00019   0.00000   0.00554   0.00537   2.08756
   A15        2.09108  -0.00105   0.00000   0.00308   0.00294   2.09402
   A16        1.80002  -0.00032   0.00000  -0.00355  -0.00355   1.79647
   A17        2.02062   0.00038   0.00000   0.00421   0.00404   2.02466
   A18        1.49063  -0.00292   0.00000   0.00332   0.00330   1.49394
   A19        1.14931   0.00071   0.00000   0.00014   0.00014   1.14945
   A20        1.54756   0.00118   0.00000   0.00417   0.00413   1.55169
   A21        1.16672   0.00041   0.00000  -0.00092  -0.00095   1.16577
   A22        2.06212   0.00101   0.00000   0.00199   0.00199   2.06411
   A23        1.97907   0.00163   0.00000   0.00468   0.00468   1.98375
   A24        0.72727   0.00078   0.00000   0.00484   0.00481   0.73208
   A25        1.95016   0.00101   0.00000   0.00241   0.00239   1.95255
    D1        2.46595   0.00006   0.00000  -0.00248  -0.00248   2.46347
    D2       -1.78390   0.00007   0.00000  -0.00290  -0.00290  -1.78680
    D3        0.33956   0.00014   0.00000  -0.00395  -0.00395   0.33561
    D4        1.09040   0.00007   0.00000   0.00232   0.00232   1.09271
    D5        3.10159  -0.00028   0.00000  -0.00131  -0.00131   3.10029
    D6       -1.05920  -0.00039   0.00000  -0.00086  -0.00086  -1.06006
    D7       -1.00769   0.00028   0.00000   0.00187   0.00187  -1.00583
    D8        1.00351  -0.00006   0.00000  -0.00176  -0.00176   1.00175
    D9        3.12589  -0.00017   0.00000  -0.00131  -0.00131   3.12459
   D10       -3.10174   0.00018   0.00000   0.00118   0.00118  -3.10056
   D11       -1.09054  -0.00016   0.00000  -0.00244  -0.00244  -1.09298
   D12        1.03185  -0.00027   0.00000  -0.00199  -0.00199   1.02986
   D13        0.18233  -0.00006   0.00000   0.00526   0.00525   0.18758
   D14        0.01877  -0.00023   0.00000   0.00459   0.00460   0.02338
   D15        0.65776   0.00012   0.00000   0.00711   0.00709   0.66485
   D16        2.00949   0.00184   0.00000   0.01020   0.01019   2.01968
   D17        3.00942   0.00073   0.00000  -0.01762  -0.01764   2.99178
   D18       -0.59193  -0.00033   0.00000   0.01456   0.01459  -0.57734
   D19        1.19142   0.00040   0.00000   0.00501   0.00499   1.19641
   D20        0.84616   0.00051   0.00000  -0.01818  -0.01819   0.82797
   D21       -2.75519  -0.00055   0.00000   0.01400   0.01403  -2.74115
   D22       -0.97184   0.00018   0.00000   0.00445   0.00444  -0.96740
   D23       -1.13940   0.00044   0.00000  -0.01924  -0.01926  -1.15866
   D24        1.54243  -0.00061   0.00000   0.01294   0.01297   1.55540
   D25       -2.95740   0.00011   0.00000   0.00338   0.00337  -2.95403
   D26        2.04549  -0.00005   0.00000  -0.00732  -0.00734   2.03815
   D27       -1.54026  -0.00110   0.00000   0.02412   0.02412  -1.51615
   D28       -0.61258   0.00021   0.00000  -0.00325  -0.00323  -0.61581
   D29       -2.56173  -0.00064   0.00000  -0.00409  -0.00408  -2.56581
         Item               Value     Threshold  Converged?
 Maximum Force            0.008937     0.000450     NO 
 RMS     Force            0.001154     0.000300     NO 
 Maximum Displacement     0.022184     0.001800     NO 
 RMS     Displacement     0.004919     0.001200     NO 
 Predicted change in Energy=-9.626480D-05
 GradGradGradGradGradGradGradGradGradGradGradGradGradGradGradGradGradGrad

 Leave Link  103 at Wed Apr  1 01:17:49 2015, MaxMem= 3758096384 cpu:       0.5
 (Enter /share/apps/g09/l202.exe)
                          Input orientation:                          
 ---------------------------------------------------------------------
 Center     Atomic      Atomic             Coordinates (Angstroms)
 Number     Number       Type             X           Y           Z
 ---------------------------------------------------------------------
      1          6           0       -1.791953   -0.951437    0.165180
      2          1           0       -0.964054   -1.626404   -0.072744
      3          1           0       -2.695271   -1.330977   -0.323934
      4          1           0       -1.955583   -0.987960    1.248751
      5          6           0       -1.473964    0.475725   -0.294996
      6          1           0       -1.353174    0.508100   -1.387155
      7          1           0       -2.338649    1.132308   -0.084346
      8          6           0       -0.267249    1.064409    0.349489
      9          1           0        0.123870    2.012931   -0.008538
     10          1           0       -0.015394    0.801095    1.373822
     11          8           0        1.421160   -0.162949   -0.521243
     12          8           0        2.371122   -0.331253    0.262402
 ---------------------------------------------------------------------
                    Distance matrix (angstroms):
                    1          2          3          4          5
     1  C    0.000000
     2  H    1.094351   0.000000
     3  H    1.095110   1.774115   0.000000
     4  H    1.096465   1.771183   1.771479   0.000000
     5  C    1.532864   2.174477   2.180963   2.181166   0.000000
     6  H    2.175435   2.536769   2.512741   3.090161   1.099295
     7  H    2.168671   3.082229   2.500471   2.533658   1.105963
     8  C    2.534231   2.811457   3.476587   2.805594   1.489319
     9  H    3.533841   3.799008   4.385060   3.861379   2.235651
    10  H    2.772786   2.980815   3.822282   2.642100   2.240144
    11  O    3.378903   2.834095   4.283482   3.900758   2.973354
    12  O    4.210139   3.593485   5.197266   4.486036   3.968198
                    6          7          8          9         10
     6  H    0.000000
     7  H    1.748746   0.000000
     8  C    2.122415   2.117432   0.000000
     9  H    2.519279   2.616342   1.086670   0.000000
    10  H    3.081963   2.762873   1.087209   1.843599   0.000000
    11  O    2.982790   4.000591   2.261705   2.584624   2.565996
    12  O    4.158838   4.944107   2.986045   3.258642   2.865821
                   11         12
    11  O    0.000000
    12  O    1.242921   0.000000
 Stoichiometry    C3H7O2(2)
 Framework group  C1[X(C3H7O2)]
 Deg. of freedom    30
 Full point group                 C1      NOp   1
 Largest Abelian subgroup         C1      NOp   1
 Largest concise Abelian subgroup C1      NOp   1
                         Standard orientation:                         
 ---------------------------------------------------------------------
 Center     Atomic      Atomic             Coordinates (Angstroms)
 Number     Number       Type             X           Y           Z
 ---------------------------------------------------------------------
      1          6           0       -1.792552   -0.949809    0.164941
      2          1           0       -0.965679   -1.626806   -0.070776
      3          1           0       -2.696022   -1.328487   -0.324559
      4          1           0       -1.957537   -0.984053    1.248382
      5          6           0       -1.471255    0.475899   -0.297437
      6          1           0       -1.349107    0.506062   -1.389508
      7          1           0       -2.334916    1.134534   -0.089002
      8          6           0       -0.264168    1.063415    0.347418
      9          1           0        0.129212    2.010528   -0.011859
     10          1           0       -0.014038    0.801469    1.372523
     11          8           0        1.422893   -0.168781   -0.519084
     12          8           0        2.371598   -0.337503    0.265992
 ---------------------------------------------------------------------
 Rotational constants (GHZ):      9.2225309      2.2973845      2.0445665
 Leave Link  202 at Wed Apr  1 01:17:49 2015, MaxMem= 3758096384 cpu:       0.3
 (Enter /share/apps/g09/l301.exe)
 Standard basis: 6-31G(d) (6D, 7F)
 Ernie: Thresh=  0.10000D-02 Tol=  0.10000D-05 Strict=F.
 There are    89 symmetry adapted basis functions of A   symmetry.
 Integral buffers will be    131072 words long.
 Raffenetti 2 integral format.
 Two-electron integral symmetry is turned on.
    89 basis functions,   168 primitive gaussians,    89 cartesian basis functions
    21 alpha electrons       20 beta electrons
       nuclear repulsion energy       168.1360739351 Hartrees.
 IExCor=  402 DFT=T Ex+Corr=B3LYP ExCW=0 ScaHFX=  0.200000
 ScaDFX=  0.800000  0.720000  1.000000  0.810000 ScalE2=  1.000000  1.000000
 IRadAn=      0 IRanWt=     -1 IRanGd=            0 ICorTp=0
 NAtoms=   12 NActive=   12 NUniq=   12 SFac= 7.50D-01 NAtFMM=   80 NAOKFM=F Big=F
 Leave Link  301 at Wed Apr  1 01:17:49 2015, MaxMem= 3758096384 cpu:       0.5
 (Enter /share/apps/g09/l302.exe)
 NPDir=0 NMtPBC=     1 NCelOv=     1 NCel=       1 NClECP=     1 NCelD=      1
         NCelK=      1 NCelE2=     1 NClLst=     1 CellRange=     0.0.
 One-electron integrals computed using PRISM.
 NBasis=    89 RedAO= T  NBF=    89
 NBsUse=    89 1.00D-06 NBFU=    89
 Precomputing XC quadrature grid using
 IXCGrd= 2 IRadAn=           0 IRanWt=          -1 IRanGd=           0 AccXCQ= 1.00D-10.
 NRdTot=     742 NPtTot=       94340 NUsed=       99703 NTot=       99735
 NSgBfM=    89    89    89    89    89 NAtAll=    12    12.
 Leave Link  302 at Wed Apr  1 01:17:50 2015, MaxMem= 3758096384 cpu:       4.0
 (Enter /share/apps/g09/l303.exe)
 DipDrv:  MaxL=1.
 Leave Link  303 at Wed Apr  1 01:17:50 2015, MaxMem= 3758096384 cpu:       0.5
 (Enter /share/apps/g09/l401.exe)
 Initial guess read from the read-write file.
 B after Tr=     0.000000    0.000000    0.000000
         Rot=    1.000000    0.000000    0.000000    0.000000 Ang=   0.00 deg.
 Guess basis will be translated and rotated to current coordinates.
 Initial guess orbital symmetries:
 Alpha Orbitals:
       Occupied  (A) (A) (A) (A) (A) (A) (A) (A) (A) (A) (A) (A)
                 (A) (A) (A) (A) (A) (A) (A) (A) (A)
       Virtual   (A) (A) (A) (A) (A) (A) (A) (A) (A) (A) (A) (A)
                 (A) (A) (A) (A) (A) (A) (A) (A) (A) (A) (A) (A)
                 (A) (A) (A) (A) (A) (A) (A) (A) (A) (A) (A) (A)
                 (A) (A) (A) (A) (A) (A) (A) (A) (A) (A) (A) (A)
                 (A) (A) (A) (A) (A) (A) (A) (A) (A) (A) (A) (A)
                 (A) (A) (A) (A) (A) (A) (A) (A)
 Beta  Orbitals:
       Occupied  (A) (A) (A) (A) (A) (A) (A) (A) (A) (A) (A) (A)
                 (A) (A) (A) (A) (A) (A) (A) (A)
       Virtual   (A) (A) (A) (A) (A) (A) (A) (A) (A) (A) (A) (A)
                 (A) (A) (A) (A) (A) (A) (A) (A) (A) (A) (A) (A)
                 (A) (A) (A) (A) (A) (A) (A) (A) (A) (A) (A) (A)
                 (A) (A) (A) (A) (A) (A) (A) (A) (A) (A) (A) (A)
                 (A) (A) (A) (A) (A) (A) (A) (A) (A) (A) (A) (A)
                 (A) (A) (A) (A) (A) (A) (A) (A) (A)
 The electronic state of the initial guess is 2-A.
 Initial guess <Sx>= 0.0000 <Sy>= 0.0000 <Sz>= 0.5000 <S**2>= 1.2759 S= 0.7353
 Generating alternative initial guess.
 Harris functional with IExCor=  402 diagonalized for initial guess.
 ExpMin= 1.61D-01 ExpMax= 5.48D+03 ExpMxC= 8.25D+02 IAcc=1 IRadAn=         1 AccDes= 0.00D+00
 HarFok:  IExCor=  402 AccDes= 0.00D+00 IRadAn=         1 IDoV= 1
 ScaDFX=  1.000000  1.000000  1.000000  1.000000
 FoFCou: FMM=F IPFlag=           0 FMFlag=      100000 FMFlg1=           0
         NFxFlg=           0 DoJE=T BraDBF=F KetDBF=T FulRan=T
         Omega=  0.000000  0.000000  1.000000  0.000000  0.000000 ICntrl=     500 IOpCl=  0
         NMat0=    1 NMatS0=    1 NMatT0=    0 NMatD0=    1 NMtDS0=    0 NMtDT0=    0
         I1Cent=           4 NGrid=           0.
 Petite list used in FoFCou.
 Harris En= -268.830746379145    
 Leave Link  401 at Wed Apr  1 01:17:51 2015, MaxMem= 3758096384 cpu:       8.0
 (Enter /share/apps/g09/l508.exe)
 Direct SCF.
 Tight linear equation convergence will be used.
 UB3LYP wavefunction.
 Quadratic Convergence SCF Method.
 Line search only if initial step raises energy.
 Integral symmetry usage will be decided dynamically.
 ReadGW:  IGet=1 IStart=           2 Next=       99584 LGW=       99582.
 Pruned (  75, 302) grid will be used in CalDFT.
 Keep R1 and R2 ints in memory in canonical form, NReq=17125503.
 Symmetry not used in FoFDir.
 MinBra= 0 MaxBra= 2 Meth= 1.
 IRaf=       0 NMat=   1 IRICut=       1 DoRegI=T DoRafI=F ISym2E= 0 JSym2E=0.
 Iteration   1 EE= -268.798657750041                                    Grad=1.057D-02
 Gradient too large for Newton-Raphson -- use scaled steepest descent instead.
     ILin= 1 X=0.000D+00 Y=-2.687986577500D+02 DE= 0.00D+00
     ILin= 2 X=3.000D-01 Y=-2.687987049341D+02 DE=-4.72D-05
     ILin= 3 X=4.243D-01 Y=-2.687987200518D+02 DE=-6.23D-05
     ILin= 4 X=6.000D-01 Y=-2.687987370046D+02 DE=-7.93D-05
     ILin= 5 X=8.485D-01 Y=-2.687987521256D+02 DE=-9.44D-05
     ILin= 6 X=1.200D+00 Y=-2.687987558013D+02 DE=-9.81D-05
     ILin= 7 X=1.697D+00 Y=-2.687987255799D+02 DE=-6.78D-05
     An  expanding polynomial of degree  7 produced  1.0865
 Iteration   2 EE= -268.798756882450     Delta-E=       -0.000099132408 Grad=1.990D-03
 QCNR:  CnvC1=5.30D-09 CnvC2=5.30D-08
 LinEq1:  Iter=  0 NonCon=     1 RMS=4.84D-05 Max=1.20D-03
 AX will form     1 AO Fock derivatives at one time.
 LinEq1:  Iter=  1 NonCon=     1 RMS=7.02D-05 Max=2.29D-03
 LinEq1:  Iter=  2 NonCon=     1 RMS=5.29D-05 Max=1.11D-03
 LinEq1:  Iter=  3 NonCon=     1 RMS=2.57D-05 Max=6.94D-04
 LinEq1:  Iter=  4 NonCon=     1 RMS=1.19D-05 Max=3.27D-04
 LinEq1:  Iter=  5 NonCon=     1 RMS=8.94D-06 Max=2.06D-04
 LinEq1:  Iter=  6 NonCon=     1 RMS=6.94D-06 Max=1.66D-04
 LinEq1:  Iter=  7 NonCon=     1 RMS=3.37D-06 Max=4.20D-05
 LinEq1:  Iter=  8 NonCon=     1 RMS=1.55D-06 Max=2.28D-05
 LinEq1:  Iter=  9 NonCon=     1 RMS=5.69D-07 Max=1.04D-05
 LinEq1:  Iter= 10 NonCon=     1 RMS=1.83D-07 Max=1.93D-06
 LinEq1:  Iter= 11 NonCon=     1 RMS=9.19D-08 Max=6.78D-07
 LinEq1:  Iter= 12 NonCon=     1 RMS=3.43D-08 Max=3.82D-07
 LinEq1:  Iter= 13 NonCon=     1 RMS=1.03D-08 Max=2.00D-07
 LinEq1:  Iter= 14 NonCon=     1 RMS=2.89D-09 Max=7.97D-08
 LinEq1:  Iter= 15 NonCon=     0 RMS=8.75D-10 Max=2.41D-08
 Linear equations converged to 5.299D-09 5.299D-08 after    15 iterations.
 Angle between quadratic step and gradient=  61.80 degrees.
     ILin= 1 X=0.000D+00 Y=-2.687987568824D+02 DE= 0.00D+00
     ILin= 2 X=1.000D+00 Y=-2.687987600507D+02 DE=-3.17D-06
     ILin= 3 X=1.414D+00 Y=-2.687987595051D+02 DE=-2.62D-06
     An  expanding polynomial of degree  3 produced  0.9995
 Iteration   3 EE= -268.798760050666     Delta-E=       -0.000003168217 Grad=1.871D-06
 QCNR:  CnvC1=1.87D-11 CnvC2=1.87D-10
 LinEq1:  Iter=  0 NonCon=     1 RMS=8.34D-08 Max=2.63D-06
 LinEq1:  Iter=  1 NonCon=     1 RMS=9.77D-08 Max=2.64D-06
 LinEq1:  Iter=  2 NonCon=     1 RMS=4.90D-08 Max=7.35D-07
 LinEq1:  Iter=  3 NonCon=     1 RMS=5.13D-08 Max=1.57D-06
 LinEq1:  Iter=  4 NonCon=     1 RMS=3.47D-08 Max=7.08D-07
 LinEq1:  Iter=  5 NonCon=     1 RMS=1.56D-08 Max=3.17D-07
 LinEq1:  Iter=  6 NonCon=     1 RMS=8.65D-09 Max=1.51D-07
 LinEq1:  Iter=  7 NonCon=     1 RMS=3.74D-09 Max=4.70D-08
 LinEq1:  Iter=  8 NonCon=     1 RMS=1.41D-09 Max=1.96D-08
 LinEq1:  Iter=  9 NonCon=     1 RMS=4.57D-10 Max=4.49D-09
 LinEq1:  Iter= 10 NonCon=     1 RMS=1.64D-10 Max=1.35D-09
 LinEq1:  Iter= 11 NonCon=     1 RMS=8.54D-11 Max=6.87D-10
 LinEq1:  Iter= 12 NonCon=     1 RMS=3.08D-11 Max=3.27D-10
 LinEq1:  Iter= 13 NonCon=     1 RMS=9.67D-12 Max=2.49D-10
 LinEq1:  Iter= 14 NonCon=     0 RMS=3.00D-12 Max=7.95D-11
 Linear equations converged to 1.871D-11 1.871D-10 after    14 iterations.
 Angle between quadratic step and gradient=  56.20 degrees.
     ILin= 1 X=0.000D+00 Y=-2.687987600507D+02 DE= 0.00D+00
     ILin= 2 X=1.000D+00 Y=-2.687987600507D+02 DE=-7.73D-12
 Iteration   4 EE= -268.798760050674     Delta-E=       -0.000000000008 Grad=1.985D-11
 Rotation gradient small -- convergence achieved.
 SCF Done:  E(UB3LYP) =  -268.798760051     a.u. after    4 cycles
            Convg  =    0.1985D-10                    41 Fock formations.
              S**2 =  1.2827                  -V/T =  2.0093
 <Sx>= 0.0000 <Sy>= 0.0000 <Sz>= 0.5000 <S**2>= 1.2827 S= 0.7380
 <L.S>= 0.000000000000E+00
 Annihilation of the first spin contaminant:
 S**2 before annihilation     1.2827,   after     0.7599
 Leave Link  508 at Wed Apr  1 01:18:05 2015, MaxMem= 3758096384 cpu:     163.5
 (Enter /share/apps/g09/l701.exe)
 Compute integral first derivatives.
 ... and contract with generalized density number  0.
 Leave Link  701 at Wed Apr  1 01:18:05 2015, MaxMem= 3758096384 cpu:       2.7
 (Enter /share/apps/g09/l702.exe)
 L702 exits ... SP integral derivatives will be done elsewhere.
 Leave Link  702 at Wed Apr  1 01:18:05 2015, MaxMem= 3758096384 cpu:       0.2
 (Enter /share/apps/g09/l703.exe)
 Compute integral first derivatives, UseDBF=F ICtDFT=           0.
 Integral derivatives from FoFDir, PRISM(SPDF).
 Calling FoFJK, ICntrl=      2127 FMM=F ISym2X=0 I1Cent= 0 IOpClX= 1 NMat=1 NMatS=1 NMatT=0.
 FoFCou: FMM=F IPFlag=           0 FMFlag=      100000 FMFlg1=         800
         NFxFlg=           0 DoJE=F BraDBF=F KetDBF=F FulRan=T
         Omega=  0.000000  0.000000  1.000000  0.000000  0.000000 ICntrl=    2127 IOpCl=  1
         NMat0=    1 NMatS0=    1 NMatT0=    0 NMatD0=    1 NMtDS0=    0 NMtDT0=    0
         I1Cent=           0 NGrid=           0.
 Symmetry not used in FoFCou.
 Leave Link  703 at Wed Apr  1 01:18:07 2015, MaxMem= 3758096384 cpu:      12.1
 (Enter /share/apps/g09/l716.exe)
 Dipole        =-8.71154725D-01 3.76519650D-01 7.43175835D-02
 ***** Axes restored to original set *****
 -------------------------------------------------------------------
 Center     Atomic                   Forces (Hartrees/Bohr)
 Number     Number              X              Y              Z
 -------------------------------------------------------------------
      1        6           0.000056882    0.000044181    0.000020163
      2        1           0.000021178   -0.000197854   -0.000005443
      3        1           0.000014423    0.000021192    0.000002307
      4        1          -0.000004823   -0.000021791    0.000016725
      5        6           0.000362863    0.000218944    0.000033878
      6        1           0.000020069   -0.000005960    0.000012261
      7        1          -0.000148169   -0.000079291   -0.000075301
      8        6           0.007222112   -0.004966944   -0.003776345
      9        1           0.000110782   -0.000463348   -0.000132759
     10        1           0.000238219   -0.000324673   -0.000497856
     11        8          -0.006235623    0.005685072    0.006257366
     12        8          -0.001657913    0.000090471   -0.001854997
 -------------------------------------------------------------------
 Cartesian Forces:  Max     0.007222112 RMS     0.002406948
 Leave Link  716 at Wed Apr  1 01:18:07 2015, MaxMem= 3758096384 cpu:       0.2
 (Enter /share/apps/g09/l103.exe)

 GradGradGradGradGradGradGradGradGradGradGradGradGradGradGradGradGradGrad
 Berny optimization.
 Using GEDIIS/GDIIS optimizer.
 Internal  Forces:  Max     0.004629596 RMS     0.000875685
 Search for a local minimum.
 Step number   2 out of a maximum of   79
 All quantities printed in internal units (Hartrees-Bohrs-Radians)
 RMS Force = .31299D-03 SwitMx=.10000D-02 MixMth= 2
 Mixed Optimization -- En-DIIS/RFO-DIIS
 Update second derivatives using D2CorX and points    1    2
 DE= -1.25D-04 DEPred=-9.63D-05 R= 1.30D+00
 SS=  1.41D+00  RLast= 6.46D-02 DXNew= 5.0454D-01 1.9375D-01
 Trust test= 1.30D+00 RLast= 6.46D-02 DXMaxT set to 3.00D-01
 Use linear search instead of GDIIS.
     Eigenvalues ---    0.00394   0.01097   0.01260   0.02473   0.02952
     Eigenvalues ---    0.03595   0.04427   0.05012   0.05802   0.06495
     Eigenvalues ---    0.07674   0.08623   0.08828   0.11278   0.11928
     Eigenvalues ---    0.12823   0.14854   0.15546   0.17027   0.27465
     Eigenvalues ---    0.30430   0.31628   0.32121   0.32894   0.33075
     Eigenvalues ---    0.33789   0.34078   0.34245   0.675101000.00000
     Eigenvalues --- 1000.000001000.000001000.000001000.000001000.00000
     Eigenvalues --- 1000.000001000.000001000.000001000.000001000.00000
     Eigenvalues --- 1000.000001000.000001000.000001000.000001000.00000
     Eigenvalues --- 1000.000001000.000001000.000001000.000001000.00000
     Eigenvalues --- 1000.000001000.000001000.000001000.000001000.00000
     Eigenvalues --- 1000.000001000.000001000.000001000.000001000.00000
     Eigenvalues --- 1000.000001000.000001000.000001000.000001000.00000
     Eigenvalues --- 1000.000001000.000001000.000001000.00000
 RFO step:  Lambda=-9.19606611D-06 EMin= 3.93504748D-03
 Quartic linear search produced a step of  0.42853.
 Iteration  1 RMS(Cart)=  0.00312405 RMS(Int)=  0.00002952
 Iteration  2 RMS(Cart)=  0.00001353 RMS(Int)=  0.00002600
 Iteration  3 RMS(Cart)=  0.00000000 RMS(Int)=  0.00002600
 Iteration  1 RMS(Cart)=  0.00000097 RMS(Int)=  0.00000133
 Variable       Old X    -DE/DX   Delta X   Delta X   Delta X     New X
                                 (Linear)    (Quad)   (Total)
    R1        2.06802  -0.00063   0.00003   0.00023   0.00026   2.06829
    R2        2.06946  -0.00002   0.00009  -0.00016  -0.00008   2.06938
    R3        2.07202   0.00002   0.00002   0.00006   0.00007   2.07209
    R4        2.89669   0.00017   0.00006   0.00060   0.00066   2.89735
    R5        5.35566  -0.00054  -0.00012  -0.00427  -0.00439   5.35127
    R6        2.07737  -0.00001   0.00016  -0.00019  -0.00003   2.07734
    R7        2.08997   0.00005   0.00034  -0.00007   0.00027   2.09024
    R8        2.81441   0.00009   0.00028  -0.00126  -0.00098   2.81343
    R9        2.05351   0.00064   0.00028  -0.00150  -0.00121   2.05229
   R10        2.05453   0.00027   0.00037  -0.00123  -0.00085   2.05367
   R11        4.27400  -0.00463   0.00000   0.00000   0.00000   4.27400
   R12        4.88423  -0.00251  -0.01403  -0.00145  -0.01547   4.86876
[...]
     30 -0.871198D-03 -0.759232D-01  0.833141D-01 -0.306941D+00 -0.305400D-02
     31  0.175753D-02  0.342078D-01 -0.332158D-01 -0.207567D-01 -0.725399D-03
     32 -0.742155D-03 -0.210587D-01  0.563366D-02  0.296721D-02  0.468559D-02
     33  0.106951D-02 -0.217733D-02 -0.796476D-02 -0.265626D-01  0.715685D-03
     34 -0.185504D-02 -0.186202D-01  0.139492D-01  0.368244D-02 -0.118580D-02
     35  0.429416D-03  0.492316D-02 -0.543031D-03  0.512805D-02  0.773538D-04
     36 -0.129700D-02 -0.114770D-01  0.153887D-01  0.175700D-01 -0.456814D-03
               26            27            28            29            30 
     26  0.276474D+00
     27 -0.100573D+00  0.795688D-01
     28 -0.354109D-02  0.938340D-02  0.530934D-01
     29 -0.148178D-02  0.246042D-01 -0.460794D-02  0.606252D-01
     30 -0.804935D-04 -0.393624D-02  0.804251D-01 -0.852360D-01  0.318551D+00
     31 -0.600771D-03  0.102343D-02 -0.175326D-02  0.241623D-02 -0.102746D-02
     32 -0.180177D-02 -0.327620D-02  0.214427D-02 -0.228972D-02 -0.815428D-03
     33 -0.107406D-02 -0.569237D-03  0.781667D-02 -0.660105D-02 -0.390288D-02
     34  0.170386D-02  0.309494D-03  0.645245D-03 -0.103707D-02  0.120373D-02
     35 -0.240493D-03 -0.715840D-04 -0.106828D-02  0.844405D-03  0.326131D-03
     36  0.873824D-03  0.216524D-03 -0.228246D-02  0.143316D-02  0.221337D-02
               31            32            33            34            35 
     31  0.329909D+00
     32 -0.420595D-01  0.147469D-01
     33  0.297083D+00 -0.341283D-01  0.290049D+00
     34 -0.368276D+00  0.624663D-01 -0.303688D+00  0.398926D+00
     35  0.713099D-01 -0.176962D-01  0.466820D-01 -0.792386D-01  0.192438D-01
     36 -0.281496D+00  0.350808D-01 -0.262967D+00  0.299859D+00 -0.514312D-01
               36 
     36  0.245904D+00
 Leave Link  716 at Wed Apr  1 01:20:05 2015, MaxMem= 3758096384 cpu:       0.4
 (Enter /share/apps/g09/l103.exe)

 GradGradGradGradGradGradGradGradGradGradGradGradGradGradGradGradGradGrad
 Berny optimization.
 Internal  Forces:  Max     0.004730037 RMS     0.000838088
 Search for a local minimum.
 Step number   1 out of a maximum of    2
 All quantities printed in internal units (Hartrees-Bohrs-Radians)
 Second derivative matrix not updated -- analytic derivatives used.
     Eigenvalues ---    0.00033   0.00053   0.00153   0.00271   0.00418
     Eigenvalues ---    0.00889   0.02144   0.02822   0.03170   0.03704
     Eigenvalues ---    0.04067   0.05227   0.06985   0.08363   0.08966
     Eigenvalues ---    0.09593   0.09676   0.11480   0.15353   0.25808
     Eigenvalues ---    0.27769   0.30580   0.31398   0.31751   0.32707
     Eigenvalues ---    0.33326   0.33757   0.34481   0.582951000.00000
     Eigenvalues --- 1000.000001000.000001000.000001000.000001000.00000
     Eigenvalues --- 1000.000001000.000001000.000001000.000001000.00000
     Eigenvalues --- 1000.000001000.000001000.000001000.000001000.00000
     Eigenvalues --- 1000.000001000.000001000.000001000.000001000.00000
     Eigenvalues --- 1000.000001000.000001000.000001000.000001000.00000
     Eigenvalues --- 1000.000001000.000001000.000001000.000001000.00000
     Eigenvalues --- 1000.000001000.000001000.000001000.000001000.00000
     Eigenvalues --- 1000.000001000.000001000.000001000.00000
 Angle between quadratic step and forces=  64.78 degrees.
 Linear search not attempted -- first point.
 Iteration  1 RMS(Cart)=  0.00104181 RMS(Int)=  0.00000211
 Iteration  2 RMS(Cart)=  0.00000177 RMS(Int)=  0.00000053
 Iteration  3 RMS(Cart)=  0.00000000 RMS(Int)=  0.00000053
 Iteration  1 RMS(Cart)=  0.00000001 RMS(Int)=  0.00000001
 Variable       Old X    -DE/DX   Delta X   Delta X   Delta X     New X
                                 (Linear)    (Quad)   (Total)
    R1        2.06841  -0.00072   0.00000  -0.00003  -0.00003   2.06839
    R2        2.06946   0.00000   0.00000  -0.00001  -0.00001   2.06945
    R3        2.07210   0.00000   0.00000   0.00000   0.00000   2.07210
    R4        2.89721   0.00002   0.00000   0.00001   0.00001   2.89722
    R5        5.33158  -0.00049   0.00000   0.00121   0.00121   5.33279
    R6        2.07768   0.00000   0.00000  -0.00001  -0.00001   2.07767
    R7        2.08992   0.00000   0.00000   0.00000   0.00000   2.08992
    R8        2.81328   0.00030   0.00000   0.00001   0.00001   2.81329
    R9        2.05230   0.00087   0.00000  -0.00003  -0.00003   2.05227
   R10        2.05315   0.00048   0.00000   0.00003   0.00003   2.05318
   R11        4.27400  -0.00473   0.00000   0.00000   0.00000   4.27400
   R12        4.87773  -0.00237   0.00000  -0.00126  -0.00126   4.87647
   R13        4.83641  -0.00179   0.00000   0.00244   0.00244   4.83885
   R14        5.43289  -0.00080   0.00000   0.00388   0.00388   5.43677
   R15        2.34468   0.00064   0.00000  -0.00001  -0.00001   2.34467
    A1        1.88858   0.00002   0.00000   0.00007   0.00008   1.88865
    A2        1.88302   0.00019   0.00000   0.00001   0.00001   1.88302
    A3        1.93233  -0.00032   0.00000  -0.00014  -0.00014   1.93219
    A4        1.88215  -0.00003   0.00000   0.00004   0.00004   1.88219
    A5        1.93811   0.00008   0.00000   0.00006   0.00006   1.93818
    A6        1.93760   0.00006   0.00000  -0.00003  -0.00003   1.93757
    A7        1.92804  -0.00076   0.00000   0.00018   0.00018   1.92823
    A8        1.92601   0.00000   0.00000   0.00003   0.00003   1.92604
    A9        1.90986  -0.00033   0.00000   0.00000   0.00000   1.90985
   A10        1.98867   0.00053   0.00000  -0.00011  -0.00011   1.98857
   A11        1.83069   0.00008   0.00000   0.00004   0.00004   1.83073
   A12        1.90507  -0.00009   0.00000   0.00005   0.00005   1.90512
   A13        1.89666  -0.00024   0.00000   0.00001   0.00001   1.89666
   A14        2.09061  -0.00029   0.00000  -0.00006  -0.00006   2.09056
   A15        2.09694  -0.00074   0.00000  -0.00020  -0.00020   2.09674
   A16        1.78158  -0.00035   0.00000  -0.00018  -0.00018   1.78140
   A17        2.02882   0.00039   0.00000   0.00009   0.00009   2.02890
   A18        1.49590  -0.00139   0.00000  -0.00087  -0.00087   1.49503
   A19        1.15478   0.00073   0.00000  -0.00053  -0.00053   1.15425
   A20        1.55843   0.00104   0.00000  -0.00027  -0.00027   1.55816
   A21        1.16633   0.00055   0.00000  -0.00093  -0.00093   1.16540
   A22        2.06723   0.00030   0.00000  -0.00361  -0.00361   2.06362
   A23        1.99766   0.00036   0.00000   0.00119   0.00119   1.99885
   A24        0.73409   0.00068   0.00000  -0.00006  -0.00006   0.73403
   A25        1.96152   0.00018   0.00000   0.00260   0.00260   1.96412
    D1        2.45229  -0.00010   0.00000  -0.00186  -0.00186   2.45042
    D2       -1.79887  -0.00002   0.00000  -0.00178  -0.00178  -1.80065
    D3        0.32459  -0.00001   0.00000  -0.00190  -0.00190   0.32269
    D4        1.08716  -0.00001   0.00000   0.00102   0.00102   1.08818
    D5        3.09301  -0.00010   0.00000   0.00108   0.00108   3.09410
    D6       -1.06312  -0.00028   0.00000   0.00101   0.00101  -1.06211
    D7       -1.01121   0.00012   0.00000   0.00098   0.00098  -1.01023
    D8        0.99464   0.00003   0.00000   0.00104   0.00104   0.99568
    D9        3.12170  -0.00015   0.00000   0.00097   0.00097   3.12267
   D10       -3.10499   0.00006   0.00000   0.00091   0.00091  -3.10408
   D11       -1.09913  -0.00003   0.00000   0.00097   0.00097  -1.09816
   D12        1.02792  -0.00021   0.00000   0.00090   0.00090   1.02882
   D13        0.20184   0.00009   0.00000   0.00206   0.00206   0.20390
   D14        0.04030  -0.00016   0.00000   0.00234   0.00234   0.04264
   D15        0.67983   0.00024   0.00000   0.00194   0.00194   0.68177
   D16        2.05169   0.00074   0.00000   0.00433   0.00433   2.05602
   D17        2.98847   0.00112   0.00000   0.00033   0.00033   2.98879
   D18       -0.55192  -0.00061   0.00000  -0.00014  -0.00014  -0.55206
   D19        1.20542   0.00043   0.00000   0.00129   0.00129   1.20671
   D20        0.82684   0.00081   0.00000   0.00033   0.00033   0.82716
   D21       -2.71355  -0.00092   0.00000  -0.00014  -0.00014  -2.71369
   D22       -0.95621   0.00012   0.00000   0.00129   0.00129  -0.95491
   D23       -1.16040   0.00089   0.00000   0.00025   0.00025  -1.16014
   D24        1.58240  -0.00084   0.00000  -0.00022  -0.00022   1.58219
   D25       -2.94344   0.00020   0.00000   0.00122   0.00122  -2.94222
   D26        2.01930   0.00055   0.00000  -0.00093  -0.00093   2.01837
   D27       -1.50750  -0.00126   0.00000  -0.00141  -0.00141  -1.50891
   D28       -0.62415   0.00017   0.00000  -0.00116  -0.00116  -0.62531
   D29       -2.57513  -0.00030   0.00000   0.00347   0.00347  -2.57166
         Item               Value     Threshold  Converged?
 Maximum Force            0.000023     0.000450     YES
 RMS     Force            0.000006     0.000300     YES
 Maximum Displacement     0.004700     0.001800     NO 
 RMS     Displacement     0.001042     0.001200     YES
 Predicted change in Energy=-1.131792D-07
 GradGradGradGradGradGradGradGradGradGradGradGradGradGradGradGradGradGrad

 Leave Link  103 at Wed Apr  1 01:20:05 2015, MaxMem= 3758096384 cpu:       0.1
 (Enter /share/apps/g09/l9999.exe)
 1\1\GINC-COMPUTE-0-12\Freq\UB3LYP\6-31G(d)\C3H7O2(2)\HETANJIN\01-Apr-2
 015\0\\#P Geom=AllCheck Guess=TCheck SCRF=Check GenChk UB3LYP/6-31G(d)
  Freq\\C3H7O2_62_b3631gd using cbs-qb3 to calculate energy\\0,2\C,-1.7
 897457146,-0.9499686321,0.1677831785\H,-0.9596459592,-1.6257665535,-0.
 0608799868\H,-2.6886635706,-1.3324772145,-0.3270932637\H,-1.9624177977
 ,-0.9827547267,1.2501163444\C,-1.4710828652,0.4764243412,-0.2952097642
 \H,-1.3368348254,0.5033381279,-1.3861108313\H,-2.3417785529,1.12972981
 19,-0.0998097839\C,-0.2731076565,1.0705520858,0.3591336242\H,0.1232766
 63,2.0164522353,0.0019100418\H,-0.0154929929,0.7958936432,1.3782696249
 \O,1.4069585045,-0.1607023691,-0.5221700968\O,2.3693957674,-0.33713074
 94,0.2407489129\\Version=EM64L-G09RevA.01\State=2-A\HF=-268.7987858\S2
 =1.286459\S2-1=0.\S2A=0.760055\RMSD=0.000e+00\RMSF=2.419e-03\ZeroPoint
 =0.0951393\Thermal=0.1021557\Dipole=-0.8599888,0.3709295,0.0787697\Dip
 oleDeriv=0.0790825,-0.0124815,0.0097858,0.0475689,0.0290063,0.0056555,
 -0.0719781,0.0066572,0.1209208,-0.0279893,0.10359,0.0327473,0.0418207,
 -0.0181581,0.0010315,0.0411574,-0.0111823,0.0483679,-0.1015523,-0.0889
 491,-0.075129,-0.0974558,0.005017,-0.0081826,-0.0810897,-0.0276199,0.0
 189212,0.0629037,-0.0092941,0.0185652,-0.0021929,0.0224537,-0.0107625,
 0.0497983,0.0316282,-0.1551021,-0.0711465,0.0008278,-0.0387046,0.14090
 41,0.0761658,0.0091965,-0.0319669,0.0004515,0.0747696,0.0260896,-0.016
 8323,0.0287569,-0.1104148,0.0290346,0.0126458,-0.0203108,0.0403284,-0.
 1350636,-0.1854696,0.119489,0.0185293,-0.0235846,-0.0351176,-0.0099507
 ,-0.0221602,-0.007553,0.0700125,-0.082288,0.2128399,0.1104853,0.418475
 4,-0.081208,-0.1158143,0.4196122,-0.1831949,0.1072623,0.0011299,-0.063
 7154,-0.0099369,-0.0639947,-0.066324,0.0268647,-0.0045953,0.0326003,0.
 0380304,0.0007436,-0.0102583,-0.0304133,0.0026327,0.0375284,0.0455477,
 -0.0280708,0.0132002,-0.0565833,1.5462706,-0.7621908,-0.2906384,-0.548
 699,0.184576,0.0852678,0.7014511,-0.3443417,-0.2120841,-1.2477742,0.52
 69747,0.2259524,0.1949401,-0.1829741,-0.0414996,-0.9518472,0.4490261,0
 .0805484\Polar=77.5600091,-13.66096,43.2734489,-0.001147,1.0562538,37.
 242023\PG=C01 [X(C3H7O2)]\NImag=1\\0.58148517,-0.01896432,0.49079651,0
 .00978214,0.03109869,0.56821603,-0.20688966,0.12537344,0.04359308,0.22
 117534,0.12337095,-0.14735321,-0.03559141,-0.13568425,0.16178027,0.043
 75442,-0.03613611,-0.06347663,-0.04870730,0.03686289,0.06328774,-0.229
 45097,-0.07394104,-0.10001038,-0.01944102,-0.00915575,-0.01209142,0.24
 603447,-0.07254073,-0.07918337,-0.04099559,0.01626481,0.00816020,0.011
 04066,0.08218602,0.08589625,-0.10045692,-0.04219870,-0.10561219,0.0069
 5363,0.00379870,0.00345469,0.11021592,0.04392079,0.11000862,-0.0569867
 3,-0.00027010,0.04038896,-0.00306826,-0.00143650,0.02610731,0.00582517
 ,0.00121775,-0.02802456,0.05535953,-0.00030186,-0.04902977,0.00257165,
 0.00135396,0.00057868,-0.02065499,0.00303630,-0.00044498,-0.01099698,0
 .00180792,0.05323927,0.04047486,0.00378594,-0.30468658,0.00053856,-0.0
 0029648,-0.00578028,0.00266012,-0.00006950,-0.01381366,-0.04498282,-0.
 00607817,0.33090765,-0.08059139,-0.01873634,0.00600686,0.00678600,0.02
 293462,-0.00871386,-0.00411991,-0.02616649,0.01033129,-0.00215435,-0.0
 0579491,0.00157156,0.49293587,-0.01969202,-0.17826957,0.03316445,-0.00
 546489,-0.02039895,0.00728631,-0.00049770,-0.01045847,0.00441411,-0.00
 014722,-0.00158412,0.00058112,-0.00932544,0.48599128,0.00574022,0.0328
 3922,-0.09525826,-0.00234700,-0.00708147,0.00204327,-0.00204842,-0.016
 13191,0.00508755,0.00626225,0.03391634,-0.00938834,-0.00699406,0.00098
 335,0.55610476,-0.00159128,-0.00014685,0.00660820,0.00022540,0.0000500
 0,-0.00074118,-0.00011072,0.00011630,0.00023562,0.00052747,-0.00170551
 ,0.00000708,-0.04886538,-0.00225512,0.03286703,0.05674180,-0.00468690,
 -0.00057015,0.03249519,0.00060006,0.00118270,-0.00037428,-0.00002675,0
 .00123856,-0.00059850,-0.00139905,-0.00625815,0.00210313,-0.00316169,-
 0.05056219,0.00209570,0.00374146,0.05357107,0.00145904,0.00087117,-0.0
 0811663,-0.00041120,0.00004643,0.00040087,0.00035280,0.00017295,0.0005
 0886,0.00028157,0.00178909,0.00109960,0.03392338,0.00480403,-0.2956773
 2,-0.03402030,-0.00453330,0.32401401,0.00650265,-0.00488555,-0.0012999
 4,0.00070461,-0.00205761,0.00046477,0.00066709,0.00046160,-0.00017886,
 0.00018617,0.00042396,-0.00040905,-0.19101352,0.11498347,0.03904673,-0
 .00401966,0.00327798,0.00232324,0.21383692,0.02483176,-0.02137039,-0.0
 0577842,-0.00224480,-0.00580757,0.00270290,-0.00015070,0.00118408,-0.0
 0075363,-0.00001353,0.00147073,0.00031389,0.10356896,-0.12508179,-0.02
 742984,0.00074301,-0.00033205,-0.00078856,-0.11992311,0.14134819,-0.00
 819669,0.00754693,0.00173897,0.00028149,0.00210642,0.00023039,0.000123
 70,-0.00079689,0.00014539,-0.00067115,-0.00031971,0.00036887,0.0325942
 1,-0.02422494,-0.05180450,0.02732019,-0.01943821,-0.00761219,-0.038159
 37,0.02836355,0.05600866,-0.01087510,-0.00943583,-0.00169811,0.0009618
 2,0.00170595,-0.00007408,0.00054745,-0.00066725,0.00017833,0.00074886,
 0.00131010,-0.00079580,-0.16449846,-0.06295789,-0.06010954,-0.00100087
 ,0.00231690,-0.00321895,-0.02815107,-0.00811076,-0.01452386,0.31851202
 ,-0.03020132,-0.01676549,-0.01410379,-0.00008169,0.00182247,-0.0007571
 6,-0.00128371,-0.00568951,0.00185456,0.00022403,0.00155714,-0.00082047
 ,-0.06113382,-0.10130173,-0.01455354,0.00195220,0.00214188,0.00027359,
 0.01059002,0.00917500,0.00804948,0.19796924,0.43703557,0.00928138,0.00
 102324,0.00750243,-0.00014156,0.00064244,0.00020735,0.00104140,0.00391
 712,-0.00064585,0.00134565,0.00085463,0.00052887,-0.06294113,-0.020211
 79,-0.11304674,-0.03084559,-0.01148309,-0.01550281,0.00058788,0.004204
 42,0.00168851,0.14697228,-0.16358458,0.51846577,-0.00375902,0.00032987
 ,-0.00405860,0.00010586,-0.00020111,-0.00006476,-0.00007884,-0.0016963
 0,0.00052663,-0.00002576,0.00027140,0.00009668,-0.00264244,-0.02311462
 ,0.01112217,0.00072250,0.00058120,-0.00064769,0.00100024,0.00115748,0.
 00036627,-0.07605579,-0.10120438,0.02240557,0.07683787,-0.00246918,0.0
 0038317,-0.00114987,0.00013440,0.00030134,-0.00001970,-0.00011766,-0.0
 0054874,0.00030272,0.00011562,0.00009722,0.00007654,0.00030851,-0.0043
 1327,0.00403056,0.00026298,0.00026507,0.00008279,-0.00097393,-0.000151
 92,0.00004719,-0.10847232,-0.26898252,0.09748304,0.11364959,0.27647369
 ,-0.00256481,-0.00043316,-0.00081043,0.00007651,0.00015120,-0.00015074
 ,-0.00034298,-0.00079083,0.00052286,-0.00027499,-0.00025150,0.00036329
 ,-0.00392320,-0.01234305,0.00677045,0.00101522,0.00002599,0.00095392,-
 0.00059820,0.00005365,0.00033459,0.02284726,0.09290386,-0.08326380,-0.
 02695113,-0.10057256,0.07956882,0.00132394,0.00134175,-0.00003482,0.00
 001086,-0.00016792,0.00006638,0.00005624,0.00025884,0.00028581,-0.0001
 9904,-0.00041537,0.00082020,0.00128569,0.00510094,-0.02579633,-0.00413
 449,-0.00190188,-0.00101503,-0.00035869,0.00042062,0.00096273,-0.05577
 651,0.00243607,-0.07063165,0.00580658,-0.00354109,0.00938340,0.0530934
 4,0.00110336,0.00131658,-0.00126776,0.00015300,-0.00018764,-0.00007604
 ,0.00018822,-0.00000033,0.00018273,-0.00010470,0.00029948,0.00032668,-
 0.00326683,0.00532492,-0.00901465,-0.00211008,-0.00020484,-0.00238941,
 -0.00067553,-0.00016285,-0.00102108,0.00247742,-0.06408345,0.07905929,
 0.00546392,-0.00148178,0.02460418,-0.00460794,0.06062524,0.00089719,0.
 00095043,0.00078762,-0.00003237,-0.00038388,-0.00004615,0.00014453,-0.
 00003929,0.00029774,-0.00038301,-0.00075402,0.00031052,0.00024309,0.00
 304362,-0.00613502,-0.00225139,-0.00021766,-0.00032729,-0.00024223,-0.
 00010747,-0.00087120,-0.07592319,0.08331410,-0.30694111,-0.00305400,-0
 .00008049,-0.00393624,0.08042511,-0.08523605,0.31855065,0.00128945,-0.
 00296168,0.00223145,-0.00054167,0.00219376,-0.00001242,0.00026842,0.00
 162536,-0.00013404,-0.00039528,0.00003037,-0.00017244,-0.00031965,-0.0
 0401792,-0.00028473,0.00205340,0.00228107,0.00178794,0.00428258,0.0029
 9896,0.00175753,0.03420785,-0.03321582,-0.02075667,-0.00072540,-0.0006
 0077,0.00102343,-0.00175326,0.00241623,-0.00102746,0.32990916,-0.00039
 372,0.00052052,-0.00072295,-0.00037767,-0.00043656,0.00018690,-0.00026
 884,-0.00033315,0.00008223,0.00002675,0.00005126,0.00011584,-0.0021068
 1,0.00335726,0.00143578,-0.00072023,-0.00062039,-0.00018364,-0.0023374
 3,-0.00113174,-0.00074215,-0.02105870,0.00563366,0.00296721,0.00468559
 ,-0.00180177,-0.00327620,0.00214427,-0.00228972,-0.00081543,-0.0420594
 9,0.01474689,0.00020972,-0.00087788,0.00088967,0.00031094,0.00104552,-
 0.00022565,0.00008236,0.00068079,-0.00001017,-0.00020744,-0.00016126,-
 0.00007638,-0.00049717,-0.00053920,0.00070459,0.00017861,0.00169810,0.
 00160166,0.00017263,0.00124008,0.00106951,-0.00217733,-0.00796476,-0.0
 2656265,0.00071569,-0.00107406,-0.00056924,0.00781667,-0.00660105,-0.0
 0390288,0.29708323,-0.03412833,0.29004884,-0.00045707,0.00229664,-0.00
 150885,-0.00002929,-0.00155214,0.00001214,-0.00019739,-0.00105990,0.00
 006715,0.00018221,-0.00001638,0.00019106,-0.00680247,0.00738841,0.0025
 4167,-0.00054819,-0.00162241,-0.00081478,-0.00363732,-0.00327788,-0.00
 185504,-0.01862020,0.01394918,0.00368244,-0.00118580,0.00170386,0.0003
 0949,0.00064524,-0.00103707,0.00120373,-0.36827561,0.06246628,-0.30368
 790,0.39892588,-0.00005604,-0.00047483,0.00027980,-0.00002639,0.000358
 26,-0.00006139,0.00003161,0.00017947,-0.00000802,-0.00002098,0.0000232
 4,-0.00003853,0.00288027,-0.00270338,-0.00108954,0.00007184,0.00014850
 ,-0.00014515,0.00111613,0.00086030,0.00042942,0.00492316,-0.00054303,0
 .00512805,0.00007735,-0.00024049,-0.00007158,-0.00106828,0.00084441,0.
 00032613,0.07130993,-0.01769624,0.04668203,-0.07923860,0.01924379,-0.0
 0038055,0.00153023,-0.00117400,-0.00011477,-0.00130036,0.00005515,-0.0
 0012764,-0.00090832,0.00005615,0.00015822,0.00008493,0.00016642,-0.001
 60096,0.00304199,0.00059957,-0.00037349,-0.00177308,-0.00134267,-0.001
 70759,-0.00202059,-0.00129700,-0.01147701,0.01538868,0.01757003,-0.000
 45681,0.00087382,0.00021652,-0.00228246,0.00143316,0.00221337,-0.28149
 581,0.03508076,-0.26296730,0.29985887,-0.05143122,0.24590378\\0.000008
 24,0.00001511,-0.00000031,0.00000138,-0.00001976,-0.00000643,0.0000015
 0,-0.00000240,0.00000046,0.00000085,-0.00000438,0.00000114,-0.00000080
 ,-0.00001211,0.00000208,0.00000320,-0.00000132,-0.00000293,0.00000089,
 0.00000054,-0.00000508,-0.00762097,0.00559412,0.00400159,-0.00000135,0
 .00001067,0.00000987,0.00002413,-0.00000320,-0.00000763,0.00760875,-0.
 00560342,-0.00400733,-0.00002584,0.00002614,0.00001457\\\@


 A DANDELION FROM A LOVER MEANS MORE THAN AN ORCHID FROM A FRIEND.
 Job cpu time:  0 days  0 hours  3 minutes 31.7 seconds.
 File lengths (MBytes):  RWF=     29 Int=      0 D2E=      0 Chk=      3 Scr=      1
 Normal termination of Gaussian 09 at Wed Apr  1 01:20:05 2015.
