 Entering Gaussian System, Link 0=/share/apps/g09/g09
 Input=C3H7O2_62_b3631gd_216.gjf
 Output=C3H7O2_62_b3631gd_216.log
 Initial command:
 /share/apps/g09/l1.exe /state/partition1/Gau-18903.inp -scrdir=/state/partition1/
 Entering Link 1 = /share/apps/g09/l1.exe PID=     18904.
  
 Copyright (c) 1988,1990,1992,1993,1995,1998,2003,2009, Gaussian, Inc.
                  All Rights Reserved.
  
 This is part of the Gaussian(R) 09 program.  It is based on
 the Gaussian(R) 03 system (copyright 2003, Gaussian, Inc.),
 the Gaussian(R) 98 system (copyright 1998, Gaussian, Inc.),
 the Gaussian(R) 94 system (copyright 1995, Gaussian, Inc.),
 the Gaussian 92(TM) system (copyright 1992, Gaussian, Inc.),
 the Gaussian 90(TM) system (copyright 1990, Gaussian, Inc.),
 the Gaussian 88(TM) system (copyright 1988, Gaussian, Inc.),
 the Gaussian 86(TM) system (copyright 1986, Carnegie Mellon
 University), and the Gaussian 82(TM) system (copyright 1983,
 Carnegie Mellon University). Gaussian is a federally registered
 trademark of Gaussian, Inc.
  
 This software contains proprietary and confidential information,
 including trade secrets, belonging to Gaussian, Inc.
  
 This software is provided under written license and may be
 used, copied, transmitted, or stored only in accord with that
 written license.
  
 The following legend is applicable only to US Government
 contracts under FAR:
  
                    RESTRICTED RIGHTS LEGEND
  
 Use, reproduction and disclosure by the US Government is
 subject to restrictions as set forth in subparagraphs (a)
 and (c) of the Commercial Computer Software - Restricted
 Rights clause in FAR 52.227-19.
  
 Gaussian, Inc.
 340 Quinnipiac St., Bldg. 40, Wallingford CT 06492
  
  
 ---------------------------------------------------------------
 Warning -- This program may not be used in any manner that
 competes with the business of Gaussian, Inc. or will provide
 assistance to any competitor of Gaussian, Inc.  The licensee
 of this program is prohibited from giving any competitor of
 Gaussian, Inc. access to this program.  By using this program,
 the user acknowledges that Gaussian, Inc. is engaged in the
 business of creating and licensing software in the field of
 computational chemistry and represents and warrants to the
 licensee that it is not a competitor of Gaussian, Inc. and that
 it will not use this program in any manner prohibited above.
 ---------------------------------------------------------------
  

 Cite this work as:
 Gaussian 09, Revision A.01,
 M. J. Frisch, G. W. Trucks, H. B. Schlegel, G. E. Scuseria, 
 M. A. Robb, J. R. Cheeseman, G. Scalmani, V. Barone, B. Mennucci, 
 G. A. Petersson, H. Nakatsuji, M. Caricato, X. Li, H. P. Hratchian, 
 A. F. Izmaylov, J. Bloino, G. Zheng, J. L. Sonnenberg, M. Hada, 
 M. Ehara, K. Toyota, R. Fukuda, J. Hasegawa, M. Ishida, T. Nakajima, 
 Y. Honda, O. Kitao, H. Nakai, T. Vreven, J. A. Montgomery, Jr., 
 J. E. Peralta, F. Ogliaro, M. Bearpark, J. J. Heyd, E. Brothers, 
 K. N. Kudin, V. N. Staroverov, R. Kobayashi, J. Normand, 
 K. Raghavachari, A. Rendell, J. C. Burant, S. S. Iyengar, J. Tomasi, 
 M. Cossi, N. Rega, J. M. Millam, M. Klene, J. E. Knox, J. B. Cross, 
 V. Bakken, C. Adamo, J. Jaramillo, R. Gomperts, R. E. Stratmann, 
 O. Yazyev, A. J. Austin, R. Cammi, C. Pomelli, J. W. Ochterski, 
 R. L. Martin, K. Morokuma, V. G. Zakrzewski, G. A. Voth, 
 P. Salvador, J. J. Dannenberg, S. Dapprich, A. D. Daniels, 
 O. Farkas, J. B. Foresman, J. V. Ortiz, J. Cioslowski, 
 and D. J. Fox, Gaussian, Inc., Wallingford CT, 2009.
 
 ******************************************
 Gaussian 09:  EM64L-G09RevA.01  8-May-2009
                 1-Apr-2015 
 ******************************************
 %mem=28GB
 %nprocshared=12
 Will use up to   12 processors via shared memory.
 %chk=C3H7O2_62_b3631gd_216.chk
 -------------------------------------------------
 #p ub3lyp/6-31g(d) opt=(modredundant) freq scf=qc
 -------------------------------------------------
 1/14=-1,18=120,19=15,26=3,38=1/1,3;
 2/9=110,12=2,17=6,18=5,40=1/2;
 3/5=1,6=6,7=1,11=2,16=1,25=1,30=1,71=1,74=-5,116=2/1,2,3;
 4//1;
 5/5=2,8=3,38=5/8;
 6/7=2,8=2,9=2,10=2,28=1/1;
 7//1,2,3,16;
 1/14=-1,18=20,19=15/3(2);
 2/9=110/2;
 99//99;
 2/9=110/2;
 3/5=1,6=6,7=1,11=2,16=1,25=1,30=1,71=1,74=-5,116=2/1,2,3;
 4/5=5,16=3/1;
 5/5=2,8=3,38=5/8;
 7//1,2,3,16;
 1/14=-1,18=20,19=15/3(-5);
 2/9=110/2;
 6/7=2,8=2,9=2,10=2,19=2,28=1/1;
 99/9=1/99;
 Leave Link    1 at Wed Apr  1 01:03:19 2015, MaxMem= 3758096384 cpu:       0.5
 (Enter /share/apps/g09/l101.exe)
 ---------------------------------------------------
 C3H7O2_62_b3631gd using cbs-qb3 to calculate energy
 ---------------------------------------------------
 Symbolic Z-matrix:
 Charge =  0 Multiplicity = 2
 C                    -1.78226  -0.9391    0.15257 
 H                    -0.98022  -1.62336  -0.13992 
 H                    -2.71198  -1.27876  -0.31543 
 H                    -1.90683  -1.00974   1.23955 
 C                    -1.44812   0.49499  -0.27153 
 H                    -1.36824   0.56651  -1.3649 
 H                    -2.27941   1.1696    0.00204 
 C                    -0.20057   1.03243   0.34028 
 H                     0.16526   2.00188   0.01247 
 H                     0.04887   0.76608   1.36435 
 O                     1.37871  -0.15444  -0.53732 
 O                     2.32358  -0.36083   0.27155 
 
 NAtoms=     12 NQM=     12 NQMF=      0 NMic=      0 NMicF=      0 NTot=     12.
 The following ModRedundant input section has been read:
 B    8   11 F                                                                 
                    Isotopes and Nuclear Properties:
 (Nuclear quadrupole moments (NQMom) in fm**2, nuclear magnetic moments (NMagM)
  in nuclear magnetons)

  Atom         1           2           3           4           5           6           7           8           9          10
 IAtWgt=          12           1           1           1          12           1           1          12           1           1
 AtmWgt=  12.0000000   1.0078250   1.0078250   1.0078250  12.0000000   1.0078250   1.0078250  12.0000000   1.0078250   1.0078250
 NucSpn=           0           1           1           1           0           1           1           0           1           1
 AtZEff=   0.0000000   0.0000000   0.0000000   0.0000000   0.0000000   0.0000000   0.0000000   0.0000000   0.0000000   0.0000000
 NQMom=    0.0000000   0.0000000   0.0000000   0.0000000   0.0000000   0.0000000   0.0000000   0.0000000   0.0000000   0.0000000
 NMagM=    0.0000000   2.7928460   2.7928460   2.7928460   0.0000000   2.7928460   2.7928460   0.0000000   2.7928460   2.7928460

  Atom        11          12
 IAtWgt=          16          16
 AtmWgt=  15.9949146  15.9949146
 NucSpn=           0           0
 AtZEff=   0.0000000   0.0000000
 NQMom=    0.0000000   0.0000000
 NMagM=    0.0000000   0.0000000
 Leave Link  101 at Wed Apr  1 01:03:19 2015, MaxMem= 3758096384 cpu:       0.6
 (Enter /share/apps/g09/l103.exe)

 GradGradGradGradGradGradGradGradGradGradGradGradGradGradGradGradGradGrad
 Berny optimization.
 Initialization pass.
                           ----------------------------
                           !    Initial Parameters    !
                           ! (Angstroms and Degrees)  !
 --------------------------                            --------------------------
 ! Name  Definition              Value          Derivative Info.                !
 --------------------------------------------------------------------------------
 ! R1    R(1,2)                  1.0941         estimate D2E/DX2                !
 ! R2    R(1,3)                  1.0949         estimate D2E/DX2                !
 ! R3    R(1,4)                  1.0964         estimate D2E/DX2                !
 ! R4    R(1,5)                  1.5324         estimate D2E/DX2                !
 ! R5    R(2,11)                 2.8072         estimate D2E/DX2                !
 ! R6    R(5,6)                  1.0986         estimate D2E/DX2                !
 ! R7    R(5,7)                  1.105          estimate D2E/DX2                !
 ! R8    R(5,8)                  1.4898         estimate D2E/DX2                !
 ! R9    R(8,9)                  1.0868         estimate D2E/DX2                !
 ! R10   R(8,10)                 1.0871         estimate D2E/DX2                !
 ! R11   R(8,11)                 2.1617         Frozen                          !
 ! R12   R(9,11)                 2.5346         estimate D2E/DX2                !
 ! R13   R(10,11)                2.4964         estimate D2E/DX2                !
 ! R14   R(10,12)                2.7638         estimate D2E/DX2                !
 ! R15   R(11,12)                1.2608         estimate D2E/DX2                !
 ! A1    A(2,1,3)              108.3122         estimate D2E/DX2                !
 ! A2    A(2,1,4)              107.9413         estimate D2E/DX2                !
 ! A3    A(2,1,5)              110.5768         estimate D2E/DX2                !
 ! A4    A(3,1,4)              107.8981         estimate D2E/DX2                !
 ! A5    A(3,1,5)              110.9278         estimate D2E/DX2                !
 ! A6    A(4,1,5)              111.0669         estimate D2E/DX2                !
 ! A7    A(1,2,11)             109.0626         estimate D2E/DX2                !
 ! A8    A(1,5,6)              110.6228         estimate D2E/DX2                !
 ! A9    A(1,5,7)              109.8039         estimate D2E/DX2                !
 ! A10   A(1,5,8)              113.9886         estimate D2E/DX2                !
 ! A11   A(6,5,7)              105.1499         estimate D2E/DX2                !
 ! A12   A(6,5,8)              108.9255         estimate D2E/DX2                !
 ! A13   A(7,5,8)              107.9427         estimate D2E/DX2                !
 ! A14   A(5,8,9)              118.6726         estimate D2E/DX2                !
 ! A15   A(5,8,10)             119.379          estimate D2E/DX2                !
 ! A16   A(5,8,11)             104.2993         estimate D2E/DX2                !
 ! A17   A(9,8,10)             115.1792         estimate D2E/DX2                !
 ! A18   A(8,10,12)             85.1977         estimate D2E/DX2                !
 ! A19   A(2,11,8)              67.4129         estimate D2E/DX2                !
 ! A20   A(2,11,9)              90.6969         estimate D2E/DX2                !
 ! A21   A(2,11,10)             68.7445         estimate D2E/DX2                !
 ! A22   A(2,11,12)            116.9539         estimate D2E/DX2                !
 ! A23   A(8,11,12)            112.1436         estimate D2E/DX2                !
 ! A24   A(9,11,10)             42.7813         estimate D2E/DX2                !
 ! A25   A(9,11,12)            111.0319         estimate D2E/DX2                !
 ! D1    D(3,1,2,11)           142.5931         estimate D2E/DX2                !
 ! D2    D(4,1,2,11)          -100.8284         estimate D2E/DX2                !
 ! D3    D(5,1,2,11)            20.8488         estimate D2E/DX2                !
 ! D4    D(2,1,5,6)             62.6584         estimate D2E/DX2                !
 ! D5    D(2,1,5,7)            178.2726         estimate D2E/DX2                !
 ! D6    D(2,1,5,8)            -60.4872         estimate D2E/DX2                !
 ! D7    D(3,1,5,6)            -57.5319         estimate D2E/DX2                !
 ! D8    D(3,1,5,7)             58.0823         estimate D2E/DX2                !
 ! D9    D(3,1,5,8)            179.3224         estimate D2E/DX2                !
 ! D10   D(4,1,5,6)           -177.5258         estimate D2E/DX2                !
 ! D11   D(4,1,5,7)            -61.9117         estimate D2E/DX2                !
 ! D12   D(4,1,5,8)             59.3285         estimate D2E/DX2                !
 ! D13   D(1,2,11,8)             8.9554         estimate D2E/DX2                !
 ! D14   D(1,2,11,9)            -0.9086         estimate D2E/DX2                !
 ! D15   D(1,2,11,10)           36.689          estimate D2E/DX2                !
 ! D16   D(1,2,11,12)          113.2233         estimate D2E/DX2                !
 ! D17   D(1,5,8,9)            173.6233         estimate D2E/DX2                !
 ! D18   D(1,5,8,10)           -36.5674         estimate D2E/DX2                !
 ! D19   D(1,5,8,11)            67.2345         estimate D2E/DX2                !
 ! D20   D(6,5,8,9)             49.5593         estimate D2E/DX2                !
 ! D21   D(6,5,8,10)          -160.6314         estimate D2E/DX2                !
 ! D22   D(6,5,8,11)           -56.8295         estimate D2E/DX2                !
 ! D23   D(7,5,8,9)            -64.1084         estimate D2E/DX2                !
 ! D24   D(7,5,8,10)            85.7009         estimate D2E/DX2                !
 ! D25   D(7,5,8,11)          -170.4972         estimate D2E/DX2                !
 ! D26   D(5,8,10,12)          118.9875         estimate D2E/DX2                !
 ! D27   D(9,8,10,12)          -90.1915         estimate D2E/DX2                !
 ! D28   D(5,8,11,2)           -34.2612         estimate D2E/DX2                !
 ! D29   D(5,8,11,12)         -145.4066         estimate D2E/DX2                !
 --------------------------------------------------------------------------------
 Trust Radius=3.00D-01 FncErr=1.00D-07 GrdErr=1.00D-06
 Number of steps in this run=  79 maximum allowed number of steps= 100.
 GradGradGradGradGradGradGradGradGradGradGradGradGradGradGradGradGradGrad

 Leave Link  103 at Wed Apr  1 01:03:19 2015, MaxMem= 3758096384 cpu:       0.1
 (Enter /share/apps/g09/l202.exe)
                          Input orientation:                          
 ---------------------------------------------------------------------
 Center     Atomic      Atomic             Coordinates (Angstroms)
 Number     Number       Type             X           Y           Z
 ---------------------------------------------------------------------
      1          6           0       -1.782264   -0.939102    0.152574
      2          1           0       -0.980220   -1.623356   -0.139916
      3          1           0       -2.711981   -1.278761   -0.315433
      4          1           0       -1.906827   -1.009735    1.239548
      5          6           0       -1.448119    0.494994   -0.271525
      6          1           0       -1.368244    0.566508   -1.364896
      7          1           0       -2.279405    1.169604    0.002036
      8          6           0       -0.200573    1.032434    0.340283
      9          1           0        0.165263    2.001880    0.012468
     10          1           0        0.048865    0.766077    1.364349
     11          8           0        1.378706   -0.154440   -0.537316
     12          8           0        2.323579   -0.360832    0.271547
 ---------------------------------------------------------------------
                    Distance matrix (angstroms):
                    1          2          3          4          5
     1  C    0.000000
     2  H    1.094088   0.000000
     3  H    1.094885   1.774415   0.000000
     4  H    1.096366   1.771455   1.771613   0.000000
     5  C    1.532366   2.173398   2.178413   2.181276   0.000000
     6  H    2.177381   2.539024   2.512373   3.091560   1.098615
     7  H    2.171739   3.083611   2.506472   2.533726   1.104975
     8  C    2.534548   2.809210   3.475450   2.808992   1.489806
     9  H    3.530137   3.804956   4.375918   3.856048   2.225839
    10  H    2.780120   3.005199   3.824304   2.644582   2.233950
    11  O    3.329170   2.807165   4.248182   3.831906   2.912619
    12  O    4.148072   3.560668   5.152087   4.387988   3.905518
                    6          7          8          9         10
     6  H    0.000000
     7  H    1.749983   0.000000
     8  C    2.118532   2.110632   0.000000
     9  H    2.511786   2.582478   1.086795   0.000000
    10  H    3.081688   2.727558   1.087141   1.835304   0.000000
    11  O    2.958106   3.927565   2.161706   2.534644   2.496429
    12  O    4.143364   4.858223   2.883966   3.210585   2.763777
                   11         12
    11  O    0.000000
    12  O    1.260810   0.000000
 Stoichiometry    C3H7O2(2)
 Framework group  C1[X(C3H7O2)]
 Deg. of freedom    30
 Full point group                 C1      NOp   1
 Largest Abelian subgroup         C1      NOp   1
 Largest concise Abelian subgroup C1      NOp   1
                         Standard orientation:                         
 ---------------------------------------------------------------------
 Center     Atomic      Atomic             Coordinates (Angstroms)
 Number     Number       Type             X           Y           Z
 ---------------------------------------------------------------------
      1          6           0       -1.782264   -0.939102    0.152574
      2          1           0       -0.980220   -1.623356   -0.139916
      3          1           0       -2.711981   -1.278761   -0.315433
      4          1           0       -1.906827   -1.009735    1.239548
      5          6           0       -1.448119    0.494994   -0.271525
      6          1           0       -1.368244    0.566508   -1.364896
      7          1           0       -2.279405    1.169604    0.002036
      8          6           0       -0.200573    1.032434    0.340283
      9          1           0        0.165263    2.001880    0.012468
     10          1           0        0.048865    0.766077    1.364349
     11          8           0        1.378706   -0.154440   -0.537316
     12          8           0        2.323579   -0.360832    0.271547
 ---------------------------------------------------------------------
 Rotational constants (GHZ):      9.3398990      2.3781348      2.1136711
 Leave Link  202 at Wed Apr  1 01:03:19 2015, MaxMem= 3758096384 cpu:       0.5
 (Enter /share/apps/g09/l301.exe)
 Standard basis: 6-31G(d) (6D, 7F)
 Ernie: Thresh=  0.10000D-02 Tol=  0.10000D-05 Strict=F.
 There are    89 symmetry adapted basis functions of A   symmetry.
 Integral buffers will be    131072 words long.
 Raffenetti 2 integral format.
 Two-electron integral symmetry is turned on.
    89 basis functions,   168 primitive gaussians,    89 cartesian basis functions
    21 alpha electrons       20 beta electrons
       nuclear repulsion energy       169.3609816856 Hartrees.
 IExCor=  402 DFT=T Ex+Corr=B3LYP ExCW=0 ScaHFX=  0.200000
 ScaDFX=  0.800000  0.720000  1.000000  0.810000 ScalE2=  1.000000  1.000000
 IRadAn=      0 IRanWt=     -1 IRanGd=            0 ICorTp=0
 NAtoms=   12 NActive=   12 NUniq=   12 SFac= 7.50D-01 NAtFMM=   80 NAOKFM=F Big=F
 Leave Link  301 at Wed Apr  1 01:03:19 2015, MaxMem= 3758096384 cpu:       0.4
 (Enter /share/apps/g09/l302.exe)
 NPDir=0 NMtPBC=     1 NCelOv=     1 NCel=       1 NClECP=     1 NCelD=      1
         NCelK=      1 NCelE2=     1 NClLst=     1 CellRange=     0.0.
 One-electron integrals computed using PRISM.
 NBasis=    89 RedAO= T  NBF=    89
 NBsUse=    89 1.00D-06 NBFU=    89
 Precomputing XC quadrature grid using
 IXCGrd= 2 IRadAn=           0 IRanWt=          -1 IRanGd=           0 AccXCQ= 1.00D-10.
 NRdTot=     742 NPtTot=       94340 NUsed=       99703 NTot=       99735
 NSgBfM=    89    89    89    89    89 NAtAll=    12    12.
 Leave Link  302 at Wed Apr  1 01:03:20 2015, MaxMem= 3758096384 cpu:       4.3
 (Enter /share/apps/g09/l303.exe)
 DipDrv:  MaxL=1.
 Leave Link  303 at Wed Apr  1 01:03:20 2015, MaxMem= 3758096384 cpu:       0.7
 (Enter /share/apps/g09/l401.exe)
 Harris functional with IExCor=  402 diagonalized for initial guess.
 ExpMin= 1.61D-01 ExpMax= 5.48D+03 ExpMxC= 8.25D+02 IAcc=1 IRadAn=         1 AccDes= 0.00D+00
 HarFok:  IExCor=  402 AccDes= 0.00D+00 IRadAn=         1 IDoV= 1
 ScaDFX=  1.000000  1.000000  1.000000  1.000000
 FoFCou: FMM=F IPFlag=           0 FMFlag=      100000 FMFlg1=           0
         NFxFlg=           0 DoJE=T BraDBF=F KetDBF=T FulRan=T
         Omega=  0.000000  0.000000  1.000000  0.000000  0.000000 ICntrl=     500 IOpCl=  0
         NMat0=    1 NMatS0=    1 NMatT0=    0 NMatD0=    1 NMtDS0=    0 NMtDT0=    0
         I1Cent=           4 NGrid=           0.
 Petite list used in FoFCou.
 Harris En= -268.835859167712    
 Initial guess orbital symmetries:
 Alpha Orbitals:
       Occupied  (A) (A) (A) (A) (A) (A) (A) (A) (A) (A) (A) (A)
                 (A) (A) (A) (A) (A) (A) (A) (A) (A)
       Virtual   (A) (A) (A) (A) (A) (A) (A) (A) (A) (A) (A) (A)
                 (A) (A) (A) (A) (A) (A) (A) (A) (A) (A) (A) (A)
                 (A) (A) (A) (A) (A) (A) (A) (A) (A) (A) (A) (A)
                 (A) (A) (A) (A) (A) (A) (A) (A) (A) (A) (A) (A)
                 (A) (A) (A) (A) (A) (A) (A) (A) (A) (A) (A) (A)
                 (A) (A) (A) (A) (A) (A) (A) (A)
 Beta  Orbitals:
       Occupied  (A) (A) (A) (A) (A) (A) (A) (A) (A) (A) (A) (A)
                 (A) (A) (A) (A) (A) (A) (A) (A)
       Virtual   (A) (A) (A) (A) (A) (A) (A) (A) (A) (A) (A) (A)
                 (A) (A) (A) (A) (A) (A) (A) (A) (A) (A) (A) (A)
                 (A) (A) (A) (A) (A) (A) (A) (A) (A) (A) (A) (A)
                 (A) (A) (A) (A) (A) (A) (A) (A) (A) (A) (A) (A)
                 (A) (A) (A) (A) (A) (A) (A) (A) (A) (A) (A) (A)
                 (A) (A) (A) (A) (A) (A) (A) (A) (A)
 The electronic state of the initial guess is 2-A.
 Initial guess <Sx>= 0.0000 <Sy>= 0.0000 <Sz>= 0.5000 <S**2>= 0.7500 S= 0.5000
 Leave Link  401 at Wed Apr  1 01:03:21 2015, MaxMem= 3758096384 cpu:       5.0
 (Enter /share/apps/g09/l508.exe)
 Direct SCF.
 Tight linear equation convergence will be used.
 UB3LYP wavefunction.
 Quadratic Convergence SCF Method.
 Line search only if initial step raises energy.
 Integral symmetry usage will be decided dynamically.
 ReadGW:  IGet=1 IStart=           2 Next=       99584 LGW=       99582.
 Pruned (  75, 302) grid will be used in CalDFT.
 Keep R1 and R2 ints in memory in canonical form, NReq=17125503.
 Symmetry not used in FoFDir.
 MinBra= 0 MaxBra= 2 Meth= 1.
 IRaf=       0 NMat=   1 IRICut=       1 DoRegI=T DoRafI=F ISym2E= 0 JSym2E=0.
 Iteration   1 EE= -268.599260907326                                    Grad=5.979D-01
 Gradient too large for Newton-Raphson -- use scaled steepest descent instead.
     ILin= 1 X=0.000D+00 Y=-2.685992609073D+02 DE= 0.00D+00
     ILin= 2 X=3.000D-01 Y=-2.687277773761D+02 DE=-1.29D-01
     ILin= 3 X=4.243D-01 Y=-2.686414528075D+02 DE=-4.22D-02
     An  expanding polynomial of degree  3 produced  0.2309
 Iteration   2 EE= -268.747237713554     Delta-E=       -0.147976806228 Grad=2.961D-01
 Gradient too large for Newton-Raphson -- use scaled steepest descent instead.
     ILin= 1 X=0.000D+00 Y=-2.687472377136D+02 DE= 0.00D+00
     ILin= 2 X=3.000D-01 Y=-2.687821439161D+02 DE=-3.49D-02
     ILin= 3 X=4.243D-01 Y=-2.687703235961D+02 DE=-2.31D-02
     An  expanding polynomial of degree  3 produced  0.2667
 Iteration   3 EE= -268.782592276125     Delta-E=       -0.035354562571 Grad=1.568D-01
 Gradient too large for Newton-Raphson -- use scaled steepest descent instead.
     ILin= 1 X=0.000D+00 Y=-2.687825922761D+02 DE= 0.00D+00
     ILin= 2 X=2.667D-01 Y=-2.687916034573D+02 DE=-9.01D-03
     ILin= 3 X=3.772D-01 Y=-2.687921640203D+02 DE=-9.57D-03
     ILin= 4 X=5.334D-01 Y=-2.687898921352D+02 DE=-7.30D-03
     An  expanding polynomial of degree  4 produced  0.3560
 Iteration   4 EE= -268.792197384701     Delta-E=       -0.009605108575 Grad=8.500D-02
 Gradient too large for Newton-Raphson -- use scaled steepest descent instead.
     ILin= 1 X=0.000D+00 Y=-2.687921973847D+02 DE= 0.00D+00
     ILin= 2 X=3.560D-01 Y=-2.687945330171D+02 DE=-2.34D-03
     ILin= 3 X=5.034D-01 Y=-2.687934721338D+02 DE=-1.27D-03
     An  expanding polynomial of degree  3 produced  0.2981
 Iteration   5 EE= -268.794621766105     Delta-E=       -0.002424381405 Grad=5.483D-02
 Gradient too large for Newton-Raphson -- use scaled steepest descent instead.
     ILin= 1 X=0.000D+00 Y=-2.687946217661D+02 DE= 0.00D+00
     ILin= 2 X=3.560D-01 Y=-2.687956862798D+02 DE=-1.06D-03
     ILin= 3 X=5.034D-01 Y=-2.687956847527D+02 DE=-1.06D-03
     An  expanding polynomial of degree  3 produced  0.4289
 Iteration   6 EE= -268.795717452037     Delta-E=       -0.001095685932 Grad=3.489D-02
 Gradient too large for Newton-Raphson -- use scaled steepest descent instead.
     ILin= 1 X=0.000D+00 Y=-2.687957174520D+02 DE= 0.00D+00
     ILin= 2 X=4.289D-01 Y=-2.687962143037D+02 DE=-4.97D-04
     ILin= 3 X=6.065D-01 Y=-2.687958691698D+02 DE=-1.52D-04
     An  expanding polynomial of degree  3 produced  0.3277
 Iteration   7 EE= -268.796266009739     Delta-E=       -0.000548557702 Grad=2.384D-02
 Gradient too large for Newton-Raphson -- use scaled steepest descent instead.
     ILin= 1 X=0.000D+00 Y=-2.687962660097D+02 DE= 0.00D+00
     ILin= 2 X=3.277D-01 Y=-2.687966044598D+02 DE=-3.38D-04
     ILin= 3 X=4.634D-01 Y=-2.687966506348D+02 DE=-3.85D-04
     ILin= 4 X=6.554D-01 Y=-2.687966236823D+02 DE=-3.58D-04
     An  expanding polynomial of degree  4 produced  0.5112
 Iteration   8 EE= -268.796653973603     Delta-E=       -0.000387963864 Grad=1.892D-02
 Gradient too large for Newton-Raphson -- use scaled steepest descent instead.
     ILin= 1 X=0.000D+00 Y=-2.687966539736D+02 DE= 0.00D+00
     ILin= 2 X=5.112D-01 Y=-2.687969132523D+02 DE=-2.59D-04
     ILin= 3 X=7.229D-01 Y=-2.687966276744D+02 DE= 2.63D-05
     An  expanding polynomial of degree  3 produced  0.3544
 Iteration   9 EE= -268.796975821015     Delta-E=       -0.000321847413 Grad=1.473D-02
 Gradient too large for Newton-Raphson -- use scaled steepest descent instead.
     ILin= 1 X=0.000D+00 Y=-2.687969758210D+02 DE= 0.00D+00
     ILin= 2 X=3.544D-01 Y=-2.687972482184D+02 DE=-2.72D-04
     ILin= 3 X=5.012D-01 Y=-2.687972896810D+02 DE=-3.14D-04
     ILin= 4 X=7.088D-01 Y=-2.687972785306D+02 DE=-3.03D-04
     An  expanding polynomial of degree  4 produced  0.5763
 Iteration  10 EE= -268.797295017093     Delta-E=       -0.000319196077 Grad=1.683D-02
 Gradient too large for Newton-Raphson -- use scaled steepest descent instead.
     ILin= 1 X=0.000D+00 Y=-2.687972950171D+02 DE= 0.00D+00
     ILin= 2 X=5.763D-01 Y=-2.687975033804D+02 DE=-2.08D-04
     ILin= 3 X=8.150D-01 Y=-2.687970907881D+02 DE= 2.04D-04
     An  expanding polynomial of degree  3 produced  0.3586
 Iteration  11 EE= -268.797624175036     Delta-E=       -0.000329157943 Grad=1.381D-02
 Gradient too large for Newton-Raphson -- use scaled steepest descent instead.
     ILin= 1 X=0.000D+00 Y=-2.687976241750D+02 DE= 0.00D+00
     ILin= 2 X=3.586D-01 Y=-2.687979086683D+02 DE=-2.84D-04
     ILin= 3 X=5.072D-01 Y=-2.687979575248D+02 DE=-3.33D-04
     ILin= 4 X=7.173D-01 Y=-2.687979592795D+02 DE=-3.35D-04
     ILin= 5 X=1.014D+00 Y=-2.687978302369D+02 DE=-2.06D-04
     An  expanding polynomial of degree  5 produced  0.6168
 Iteration  12 EE= -268.797968194084     Delta-E=       -0.000344019048 Grad=1.738D-02
 Gradient too large for Newton-Raphson -- use scaled steepest descent instead.
     ILin= 1 X=0.000D+00 Y=-2.687979681941D+02 DE= 0.00D+00
     ILin= 2 X=6.168D-01 Y=-2.687981392750D+02 DE=-1.71D-04
     ILin= 3 X=8.722D-01 Y=-2.687975889267D+02 DE= 3.79D-04
     An  expanding polynomial of degree  3 produced  0.3581
 Iteration  13 EE= -268.798325446998     Delta-E=       -0.000357252915 Grad=1.397D-02
 Gradient too large for Newton-Raphson -- use scaled steepest descent instead.
     ILin= 1 X=0.000D+00 Y=-2.687983254470D+02 DE= 0.00D+00
     ILin= 2 X=3.581D-01 Y=-2.687986139252D+02 DE=-2.88D-04
     ILin= 3 X=5.065D-01 Y=-2.687986689737D+02 DE=-3.44D-04
     ILin= 4 X=7.163D-01 Y=-2.687986839347D+02 DE=-3.58D-04
     ILin= 5 X=1.013D+00 Y=-2.687985822672D+02 DE=-2.57D-04
     An  expanding polynomial of degree  5 produced  0.6543
 Iteration  14 EE= -268.798687102644     Delta-E=       -0.000361655646 Grad=1.756D-02
 Gradient too large for Newton-Raphson -- use scaled steepest descent instead.
     ILin= 1 X=0.000D+00 Y=-2.687986871026D+02 DE= 0.00D+00
     ILin= 2 X=6.543D-01 Y=-2.687988040573D+02 DE=-1.17D-04
     ILin= 3 X=9.253D-01 Y=-2.687981553724D+02 DE= 5.32D-04
     An  expanding polynomial of degree  3 produced  0.3593
 Iteration  15 EE= -268.799046563317     Delta-E=       -0.000359460672 Grad=1.364D-02
 Gradient too large for Newton-Raphson -- use scaled steepest descent instead.
     ILin= 1 X=0.000D+00 Y=-2.687990465633D+02 DE= 0.00D+00
     ILin= 2 X=3.593D-01 Y=-2.687993122630D+02 DE=-2.66D-04
     ILin= 3 X=5.081D-01 Y=-2.687993669106D+02 DE=-3.20D-04
     ILin= 4 X=7.185D-01 Y=-2.687993900531D+02 DE=-3.43D-04
     ILin= 5 X=1.016D+00 Y=-2.687993168873D+02 DE=-2.70D-04
     An  expanding polynomial of degree  5 produced  0.6909
 Iteration  16 EE= -268.799390591995     Delta-E=       -0.000344028678 Grad=1.675D-02
 Gradient too large for Newton-Raphson -- use scaled steepest descent instead.
     ILin= 1 X=0.000D+00 Y=-2.687993905920D+02 DE= 0.00D+00
     ILin= 2 X=6.909D-01 Y=-2.687994480748D+02 DE=-5.75D-05
     ILin= 3 X=9.770D-01 Y=-2.687987915899D+02 DE= 5.99D-04
     An  expanding polynomial of degree  3 produced  0.3625
 Iteration  17 EE= -268.799711846116     Delta-E=       -0.000321254121 Grad=1.254D-02
 Gradient too large for Newton-Raphson -- use scaled steepest descent instead.
     ILin= 1 X=0.000D+00 Y=-2.687997118461D+02 DE= 0.00D+00
     ILin= 2 X=3.625D-01 Y=-2.687999280421D+02 DE=-2.16D-04
     ILin= 3 X=5.127D-01 Y=-2.687999747532D+02 DE=-2.63D-04
     ILin= 4 X=7.251D-01 Y=-2.687999988358D+02 DE=-2.87D-04
     ILin= 5 X=1.025D+00 Y=-2.687999505532D+02 DE=-2.39D-04
     An  expanding polynomial of degree  5 produced  0.7240
 Iteration  18 EE= -268.799998836432     Delta-E=       -0.000286990316 Grad=1.488D-02
 Gradient too large for Newton-Raphson -- use scaled steepest descent instead.
     ILin= 1 X=0.000D+00 Y=-2.687999988364D+02 DE= 0.00D+00
     ILin= 2 X=7.240D-01 Y=-2.688000122098D+02 DE=-1.34D-05
     ILin= 3 X=1.024D+00 Y=-2.687994528681D+02 DE= 5.46D-04
     An  expanding polynomial of degree  3 produced  0.3670
 Iteration  19 EE= -268.800248307016     Delta-E=       -0.000249470583 Grad=1.076D-02
 Gradient too large for Newton-Raphson -- use scaled steepest descent instead.
     ILin= 1 X=0.000D+00 Y=-2.688002483070D+02 DE= 0.00D+00
     ILin= 2 X=3.670D-01 Y=-2.688004017511D+02 DE=-1.53D-04
     ILin= 3 X=5.190D-01 Y=-2.688004359162D+02 DE=-1.88D-04
     ILin= 4 X=7.340D-01 Y=-2.688004553213D+02 DE=-2.07D-04
     ILin= 5 X=1.038D+00 Y=-2.688004258354D+02 DE=-1.78D-04
     An  expanding polynomial of degree  5 produced  0.7508
 Iteration  20 EE= -268.800455423411     Delta-E=       -0.000207116396 Grad=1.228D-02
 Gradient too large for Newton-Raphson -- use scaled steepest descent instead.
     ILin= 1 X=0.000D+00 Y=-2.688004554234D+02 DE= 0.00D+00
     ILin= 2 X=7.508D-01 Y=-2.688004481745D+02 DE= 7.25D-06
     ILin= 3 X=5.309D-01 Y=-2.688005918591D+02 DE=-1.36D-04
     A contracting polynomial of degree  3 produced  0.3714
 Iteration  21 EE= -268.800622941934     Delta-E=       -0.000167518523 Grad=8.630D-03
 QCNR:  CnvC1=5.30D-09 CnvC2=5.30D-08
 LinEq1:  Iter=  0 NonCon=     1 RMS=4.96D-04 Max=2.42D-02
 AX will form     1 AO Fock derivatives at one time.
 LinEq1:  Iter=  1 NonCon=     1 RMS=9.84D-04 Max=5.00D-02
 LinEq1:  Iter=  2 NonCon=     1 RMS=3.73D-05 Max=1.45D-03
 LinEq1:  Iter=  3 NonCon=     1 RMS=3.18D-05 Max=7.18D-04
 LinEq1:  Iter=  4 NonCon=     1 RMS=6.56D-06 Max=9.53D-05
 LinEq1:  Iter=  5 NonCon=     1 RMS=3.20D-06 Max=3.91D-05
 LinEq1:  Iter=  6 NonCon=     1 RMS=1.02D-06 Max=2.23D-05
 LinEq1:  Iter=  7 NonCon=     1 RMS=4.86D-07 Max=1.51D-05
 LinEq1:  Iter=  8 NonCon=     1 RMS=2.60D-07 Max=6.09D-06
 LinEq1:  Iter=  9 NonCon=     1 RMS=1.29D-07 Max=2.13D-06
 LinEq1:  Iter= 10 NonCon=     1 RMS=5.68D-08 Max=9.08D-07
 LinEq1:  Iter= 11 NonCon=     1 RMS=1.50D-08 Max=1.75D-07
 LinEq1:  Iter= 12 NonCon=     0 RMS=4.36D-09 Max=4.86D-08
 Linear equations converged to 5.299D-09 5.299D-08 after    12 iterations.
 Angle between quadratic step and gradient=  55.62 degrees.
     ILin= 1 X=0.000D+00 Y=-2.688006229419D+02 DE= 0.00D+00
     ILin= 2 X=1.000D+00 Y=-2.688010417473D+02 DE=-4.19D-04
     ILin= 3 X=1.414D+00 Y=-2.688007011738D+02 DE=-7.82D-05
     An  expanding polynomial of degree  3 produced  0.7386
 Iteration  22 EE= -268.801083070891     Delta-E=       -0.000460128956 Grad=2.763D-03
 QCNR:  CnvC1=5.30D-09 CnvC2=5.30D-08
 LinEq1:  Iter=  0 NonCon=     1 RMS=1.27D-04 Max=5.01D-03
 LinEq1:  Iter=  1 NonCon=     1 RMS=8.91D-05 Max=2.80D-03
 LinEq1:  Iter=  2 NonCon=     1 RMS=4.96D-05 Max=1.43D-03
 LinEq1:  Iter=  3 NonCon=     1 RMS=6.10D-05 Max=2.17D-03
 LinEq1:  Iter=  4 NonCon=     1 RMS=1.09D-05 Max=1.11D-04
 LinEq1:  Iter=  5 NonCon=     1 RMS=4.94D-06 Max=5.40D-05
 LinEq1:  Iter=  6 NonCon=     1 RMS=2.71D-06 Max=3.62D-05
 LinEq1:  Iter=  7 NonCon=     1 RMS=9.28D-07 Max=1.12D-05
 LinEq1:  Iter=  8 NonCon=     1 RMS=4.64D-07 Max=5.25D-06
 LinEq1:  Iter=  9 NonCon=     1 RMS=1.73D-07 Max=2.46D-06
 LinEq1:  Iter= 10 NonCon=     1 RMS=6.76D-08 Max=1.15D-06
 LinEq1:  Iter= 11 NonCon=     1 RMS=3.54D-08 Max=6.20D-07
 LinEq1:  Iter= 12 NonCon=     1 RMS=1.64D-08 Max=4.35D-07
 LinEq1:  Iter= 13 NonCon=     1 RMS=6.93D-09 Max=2.02D-07
 LinEq1:  Iter= 14 NonCon=     0 RMS=1.87D-09 Max=3.20D-08
 Linear equations converged to 5.299D-09 5.299D-08 after    14 iterations.
 Angle between quadratic step and gradient=  63.99 degrees.
     ILin= 1 X=0.000D+00 Y=-2.688010830709D+02 DE= 0.00D+00
     ILin= 2 X=1.000D+00 Y=-2.688010883963D+02 DE=-5.33D-06
     ILin= 3 X=1.414D+00 Y=-2.688010874903D+02 DE=-4.42D-06
     An  expanding polynomial of degree  3 produced  1.0012
 Iteration  23 EE= -268.801088396343     Delta-E=       -0.000005325452 Grad=4.596D-06
 QCNR:  CnvC1=4.60D-11 CnvC2=4.60D-10
 LinEq1:  Iter=  0 NonCon=     1 RMS=3.93D-07 Max=1.76D-05
 LinEq1:  Iter=  1 NonCon=     1 RMS=2.53D-07 Max=6.80D-06
 LinEq1:  Iter=  2 NonCon=     1 RMS=1.46D-07 Max=6.11D-06
 LinEq1:  Iter=  3 NonCon=     1 RMS=7.38D-08 Max=1.72D-06
 LinEq1:  Iter=  4 NonCon=     1 RMS=7.15D-08 Max=1.38D-06
 LinEq1:  Iter=  5 NonCon=     1 RMS=4.29D-08 Max=4.58D-07
 LinEq1:  Iter=  6 NonCon=     1 RMS=1.37D-08 Max=1.42D-07
 LinEq1:  Iter=  7 NonCon=     1 RMS=7.38D-09 Max=9.17D-08
 LinEq1:  Iter=  8 NonCon=     1 RMS=3.21D-09 Max=3.22D-08
 LinEq1:  Iter=  9 NonCon=     1 RMS=9.56D-10 Max=1.59D-08
 LinEq1:  Iter= 10 NonCon=     1 RMS=3.53D-10 Max=7.38D-09
 LinEq1:  Iter= 11 NonCon=     1 RMS=1.86D-10 Max=3.75D-09
 LinEq1:  Iter= 12 NonCon=     1 RMS=1.04D-10 Max=2.35D-09
 LinEq1:  Iter= 13 NonCon=     1 RMS=4.47D-11 Max=1.02D-09
 LinEq1:  Iter= 14 NonCon=     0 RMS=1.38D-11 Max=1.79D-10
 Linear equations converged to 4.596D-11 4.596D-10 after    14 iterations.
 Angle between quadratic step and gradient=  49.37 degrees.
     ILin= 1 X=0.000D+00 Y=-2.688010883963D+02 DE= 0.00D+00
     ILin= 2 X=1.000D+00 Y=-2.688010883964D+02 DE=-5.14D-11
 Iteration  24 EE= -268.801088396394     Delta-E=       -0.000000000051 Grad=8.914D-11
 Rotation gradient small -- convergence achieved.
 SCF Done:  E(UB3LYP) =  -268.801088396     a.u. after   24 cycles
            Convg  =    0.8914D-10                   121 Fock formations.
              S**2 =  1.1149                  -V/T =  2.0095
 <Sx>= 0.0000 <Sy>= 0.0000 <Sz>= 0.5000 <S**2>= 1.1149 S= 0.6683
 <L.S>= 0.000000000000E+00
 Annihilation of the first spin contaminant:
 S**2 before annihilation     1.1149,   after     0.7552
 Leave Link  508 at Wed Apr  1 01:04:14 2015, MaxMem= 3758096384 cpu:     620.9
 (Enter /share/apps/g09/l601.exe)
 Copying SCF densities to generalized density rwf, IOpCl= 1 IROHF=0.

 **********************************************************************

            Population analysis using the SCF density.

 **********************************************************************

 Orbital symmetries:
 Alpha Orbitals:
       Occupied  (A) (A) (A) (A) (A) (A) (A) (A) (A) (A) (A) (A)
                 (A) (A) (A) (A) (A) (A) (A) (A) (A)
       Virtual   (A) (A) (A) (A) (A) (A) (A) (A) (A) (A) (A) (A)
                 (A) (A) (A) (A) (A) (A) (A) (A) (A) (A) (A) (A)
                 (A) (A) (A) (A) (A) (A) (A) (A) (A) (A) (A) (A)
                 (A) (A) (A) (A) (A) (A) (A) (A) (A) (A) (A) (A)
                 (A) (A) (A) (A) (A) (A) (A) (A) (A) (A) (A) (A)
                 (A) (A) (A) (A) (A) (A) (A) (A)
 Beta  Orbitals:
       Occupied  (A) (A) (A) (A) (A) (A) (A) (A) (A) (A) (A) (A)
                 (A) (A) (A) (A) (A) (A) (A) (A)
       Virtual   (A) (A) (A) (A) (A) (A) (A) (A) (A) (A) (A) (A)
                 (A) (A) (A) (A) (A) (A) (A) (A) (A) (A) (A) (A)
                 (A) (A) (A) (A) (A) (A) (A) (A) (A) (A) (A) (A)
                 (A) (A) (A) (A) (A) (A) (A) (A) (A) (A) (A) (A)
                 (A) (A) (A) (A) (A) (A) (A) (A) (A) (A) (A) (A)
                 (A) (A) (A) (A) (A) (A) (A) (A) (A)
 The electronic state is 2-A.
 Alpha  occ. eigenvalues --  -19.26366 -19.22884 -10.22638 -10.20609 -10.18460
 Alpha  occ. eigenvalues --   -1.20203  -0.80335  -0.78205  -0.68250  -0.59372
 Alpha  occ. eigenvalues --   -0.49030  -0.48765  -0.47289  -0.46370  -0.44887
 Alpha  occ. eigenvalues --   -0.42036  -0.36668  -0.36418  -0.35674  -0.26127
 Alpha  occ. eigenvalues --   -0.24934
 Alpha virt. eigenvalues --   -0.05143   0.09135   0.13329   0.13637   0.14564
 Alpha virt. eigenvalues --    0.15991   0.17810   0.18791   0.20480   0.22615
 Alpha virt. eigenvalues --    0.26445   0.49158   0.50173   0.53553   0.55023
 Alpha virt. eigenvalues --    0.58189   0.63125   0.65938   0.69225   0.76045
 Alpha virt. eigenvalues --    0.76719   0.80319   0.82104   0.85039   0.86173
 Alpha virt. eigenvalues --    0.88781   0.90204   0.91667   0.92867   0.95769
 Alpha virt. eigenvalues --    0.96876   0.97627   1.03500   1.03929   1.13476
 Alpha virt. eigenvalues --    1.25887   1.39793   1.43784   1.50136   1.51410
 Alpha virt. eigenvalues --    1.55375   1.57184   1.64755   1.70651   1.76760
 Alpha virt. eigenvalues --    1.86536   1.90553   1.91598   1.94637   1.98006
 Alpha virt. eigenvalues --    2.02976   2.09930   2.19015   2.24179   2.31821
 Alpha virt. eigenvalues --    2.35212   2.38165   2.41981   2.54227   2.55908
 Alpha virt. eigenvalues --    2.59922   2.66915   2.91249   3.30078   3.66533
 Alpha virt. eigenvalues --    4.12414   4.26924   4.44870
  Beta  occ. eigenvalues --  -19.24152 -19.20609 -10.23514 -10.20565 -10.18467
  Beta  occ. eigenvalues --   -1.15586  -0.80427  -0.72423  -0.68916  -0.59999
  Beta  occ. eigenvalues --   -0.47556  -0.46667  -0.44423  -0.43207  -0.40759
  Beta  occ. eigenvalues --   -0.39169  -0.36752  -0.36713  -0.35773  -0.20863
  Beta virt. eigenvalues --   -0.07673  -0.06877   0.09002   0.12857   0.13427
  Beta virt. eigenvalues --    0.14389   0.16001   0.17658   0.18686   0.22015
  Beta virt. eigenvalues --    0.23769   0.26122   0.49048   0.50094   0.53522
  Beta virt. eigenvalues --    0.54019   0.57024   0.62011   0.65861   0.69252
  Beta virt. eigenvalues --    0.76501   0.77683   0.80935   0.83486   0.86104
  Beta virt. eigenvalues --    0.86557   0.89117   0.91361   0.92636   0.93709
  Beta virt. eigenvalues --    0.96491   0.97530   0.98476   1.04361   1.07139
  Beta virt. eigenvalues --    1.14426   1.27132   1.39990   1.44031   1.51697
  Beta virt. eigenvalues --    1.52140   1.57437   1.59541   1.67530   1.69018
  Beta virt. eigenvalues --    1.78620   1.85587   1.90361   1.91300   1.97566
  Beta virt. eigenvalues --    2.00189   2.03722   2.10113   2.18121   2.23997
  Beta virt. eigenvalues --    2.31554   2.34805   2.40403   2.41573   2.57677
  Beta virt. eigenvalues --    2.58332   2.59917   2.66649   2.93229   3.33453
  Beta virt. eigenvalues --    3.69747   4.11715   4.25920   4.44496
          Condensed to atoms (all electrons):
              1          2          3          4          5          6
     1  C    5.059174   0.381990   0.373257   0.378155   0.375719  -0.035498
     2  H    0.381990   0.537731  -0.028238  -0.029946  -0.034505  -0.003962
     3  H    0.373257  -0.028238   0.565650  -0.030223  -0.028789  -0.002762
     4  H    0.378155  -0.029946  -0.030223   0.569157  -0.035316   0.004806
     5  C    0.375719  -0.034505  -0.028789  -0.035316   4.952349   0.378821
     6  H   -0.035498  -0.003962  -0.002762   0.004806   0.378821   0.571435
     7  H   -0.037533   0.004780  -0.002640  -0.004238   0.363695  -0.037914
     8  C   -0.046199  -0.004225   0.004517  -0.004445   0.369860  -0.041985
     9  H    0.004072   0.000053  -0.000155  -0.000007  -0.031496  -0.002979
    10  H   -0.005140  -0.000036  -0.000003   0.004405  -0.034974   0.004882
    11  O   -0.001842   0.005363   0.000036  -0.000075  -0.005241  -0.000329
    12  O    0.000107  -0.000157  -0.000001   0.000010   0.000597   0.000038
              7          8          9         10         11         12
     1  C   -0.037533  -0.046199   0.004072  -0.005140  -0.001842   0.000107
     2  H    0.004780  -0.004225   0.000053  -0.000036   0.005363  -0.000157
     3  H   -0.002640   0.004517  -0.000155  -0.000003   0.000036  -0.000001
     4  H   -0.004238  -0.004445  -0.000007   0.004405  -0.000075   0.000010
     5  C    0.363695   0.369860  -0.031496  -0.034974  -0.005241   0.000597
     6  H   -0.037914  -0.041985  -0.002979   0.004882  -0.000329   0.000038
     7  H    0.595950  -0.039082  -0.000681  -0.000904   0.000524  -0.000027
     8  C   -0.039082   5.208439   0.360658   0.358212   0.069157  -0.027249
     9  H   -0.000681   0.360658   0.537430  -0.033719  -0.005098   0.000749
    10  H   -0.000904   0.358212  -0.033719   0.535127  -0.007893   0.005616
    11  O    0.000524   0.069157  -0.005098  -0.007893   7.947680   0.092806
    12  O   -0.000027  -0.027249   0.000749   0.005616   0.092806   8.045115
 Mulliken atomic charges:
              1
     1  C   -0.446263
     2  H    0.171151
     3  H    0.149350
     4  H    0.147716
     5  C   -0.270718
     6  H    0.165448
     7  H    0.158068
     8  C   -0.207659
     9  H    0.171173
    10  H    0.174426
    11  O   -0.095087
    12  O   -0.117605
 Sum of Mulliken atomic charges =   0.00000
 Mulliken charges with hydrogens summed into heavy atoms:
              1
     1  C    0.021955
     5  C    0.052798
     8  C    0.137940
    11  O   -0.095087
    12  O   -0.117605
 Sum of Mulliken charges with hydrogens summed into heavy atoms =   0.00000
          Atomic-Atomic Spin Densities.
              1          2          3          4          5          6
     1  C   -0.004852   0.000672   0.000554  -0.000077  -0.003737  -0.002890
     2  H    0.000672  -0.000794  -0.000365   0.000459   0.000448   0.000428
     3  H    0.000554  -0.000365   0.000957   0.000155  -0.000361   0.000290
     4  H   -0.000077   0.000459   0.000155  -0.000291  -0.000488  -0.000173
     5  C   -0.003737   0.000448  -0.000361  -0.000488   0.028349  -0.003995
     6  H   -0.002890   0.000428   0.000290  -0.000173  -0.003995  -0.019496
     7  H    0.004000  -0.000281  -0.000624   0.000773  -0.007314   0.007970
     8  C    0.004637  -0.001824  -0.000165   0.000274   0.029245   0.009148
     9  H   -0.000049   0.000029   0.000002  -0.000018  -0.000859  -0.000964
    10  H   -0.000624   0.000079   0.000028  -0.000267  -0.001435  -0.000367
    11  O   -0.000436   0.001000   0.000014   0.000001  -0.001746  -0.000765
    12  O    0.000048  -0.000313  -0.000001  -0.000007  -0.000021  -0.000001
              7          8          9         10         11         12
     1  C    0.004000   0.004637  -0.000049  -0.000624  -0.000436   0.000048
     2  H   -0.000281  -0.001824   0.000029   0.000079   0.001000  -0.000313
     3  H   -0.000624  -0.000165   0.000002   0.000028   0.000014  -0.000001
     4  H    0.000773   0.000274  -0.000018  -0.000267   0.000001  -0.000007
     5  C   -0.007314   0.029245  -0.000859  -0.001435  -0.001746  -0.000021
     6  H    0.007970   0.009148  -0.000964  -0.000367  -0.000765  -0.000001
     7  H   -0.053322   0.014307   0.001073   0.001171   0.000068   0.000005
     8  C    0.014307  -0.703136   0.008332   0.011868   0.012584   0.009131
     9  H    0.001073   0.008332   0.022749  -0.002807  -0.001510   0.000077
    10  H    0.001171   0.011868  -0.002807   0.020026  -0.003584   0.000331
    11  O    0.000068   0.012584  -0.001510  -0.003584   0.986134  -0.232378
    12  O    0.000005   0.009131   0.000077   0.000331  -0.232378   1.026163
 Mulliken atomic spin densities:
              1
     1  C   -0.002754
     2  H   -0.000463
     3  H    0.000484
     4  H    0.000340
     5  C    0.038086
     6  H   -0.010816
     7  H   -0.032174
     8  C   -0.605598
     9  H    0.026055
    10  H    0.024422
    11  O    0.759384
    12  O    0.803035
 Sum of Mulliken atomic spin densities =   1.00000
 Electronic spatial extent (au):  <R**2>=            586.5353
 Charge=              0.0000 electrons
 Dipole moment (field-independent basis, Debye):
    X=             -2.6026    Y=              1.1908    Z=              0.2836  Tot=              2.8761
 Quadrupole moment (field-independent basis, Debye-Ang):
   XX=            -33.8575   YY=            -29.1135   ZZ=            -30.1960
   XY=              0.6054   XZ=              0.0785   YZ=              0.0927
 Traceless Quadrupole moment (field-independent basis, Debye-Ang):
   XX=             -2.8018   YY=              1.9422   ZZ=              0.8597
   XY=              0.6054   XZ=              0.0785   YZ=              0.0927
 Octapole moment (field-independent basis, Debye-Ang**2):
  XXX=              3.1012  YYY=              0.9439  ZZZ=             -0.2511  XYY=              5.2208
  XXY=              1.6052  XXZ=             -1.9490  XZZ=              4.0263  YZZ=             -0.3258
  YYZ=             -0.8430  XYZ=             -0.0659
 Hexadecapole moment (field-independent basis, Debye-Ang**3):
 XXXX=           -516.7078 YYYY=           -145.7547 ZZZZ=            -65.3349 XXXY=             -0.3778
 XXXZ=             -1.0410 YYYX=             -4.8167 YYYZ=             -0.2625 ZZZX=              0.0217
 ZZZY=             -0.6640 XXYY=           -108.1344 XXZZ=            -95.4189 YYZZ=            -37.2843
 XXYZ=              0.8980 YYXZ=              0.1347 ZZXY=             -1.2450
 N-N= 1.693609816856D+02 E-N=-1.441133277882D+03  KE= 3.972102468681D+02
                          Isotropic Fermi Contact Couplings
        Atom                 a.u.       MegaHertz       Gauss      10(-4) cm-1
     1  C(13)             -0.00345      -3.87890      -1.38409      -1.29386
     2  H(1)               0.00025       1.13402       0.40465       0.37827
     3  H(1)               0.00033       1.48211       0.52885       0.49438
     4  H(1)               0.00019       0.85536       0.30521       0.28532
     5  C(13)              0.01256      14.12494       5.04013       4.71157
     6  H(1)              -0.00547     -24.45282      -8.72537      -8.15658
     7  H(1)              -0.01734     -77.49604     -27.65251     -25.84990
     8  C(13)             -0.10617    -119.35705     -42.58956     -39.81323
     9  H(1)               0.00845      37.75631      13.47239      12.59415
    10  H(1)               0.00804      35.91986      12.81710      11.98158
    11  O(17)              0.02396     -14.52681      -5.18353      -4.84562
    12  O(17)              0.10832     -65.66610     -23.43130     -21.90385
 --------------------------------------------------------
       Center         ----  Spin Dipole Couplings  ----
                      3XX-RR        3YY-RR        3ZZ-RR
 --------------------------------------------------------
     1   Atom        0.009197     -0.009451      0.000255
     2   Atom        0.012314     -0.008277     -0.004037
     3   Atom        0.003286     -0.002909     -0.000377
     4   Atom        0.004674     -0.004796      0.000123
     5   Atom       -0.002033      0.000735      0.001297
     6   Atom        0.008130      0.000388     -0.008518
     7   Atom       -0.004083      0.001716      0.002367
     8   Atom       -0.109126     -0.001879      0.111005
     9   Atom        0.013213     -0.027461      0.014247
    10   Atom        0.024503      0.015967     -0.040469
    11   Atom       -0.559565      0.977079     -0.417514
    12   Atom       -0.558630      1.322070     -0.763440
 --------------------------------------------------------
                        XY            XZ            YZ
 --------------------------------------------------------
     1   Atom       -0.005423     -0.001609      0.002037
     2   Atom        0.006026     -0.001607     -0.001940
     3   Atom       -0.001097     -0.000475     -0.000592
     4   Atom       -0.002053     -0.001337      0.001552
     5   Atom       -0.005607     -0.002074     -0.003268
     6   Atom       -0.005246     -0.003154     -0.003906
     7   Atom       -0.001762     -0.003463     -0.001474
     8   Atom        0.351721      0.278825     -0.236323
     9   Atom       -0.025612      0.018203      0.017600
    10   Atom        0.008948     -0.020630      0.018896
    11   Atom        0.501082     -1.231104      0.042650
    12   Atom        0.956846     -1.113111     -0.433327
 --------------------------------------------------------


 ---------------------------------------------------------------------------------
              Anisotropic Spin Dipole Couplings in Principal Axis System
 ---------------------------------------------------------------------------------

       Atom             a.u.   MegaHertz   Gauss  10(-4) cm-1        Axes

              Baa    -0.0111    -1.493    -0.533    -0.498  0.2452  0.9597 -0.1371
     1 C(13)  Bbb     0.0001     0.008     0.003     0.003  0.2203  0.0825  0.9719
              Bcc     0.0111     1.485     0.530     0.495  0.9441 -0.2685 -0.1912
 
              Baa    -0.0103    -5.474    -1.953    -1.826 -0.2352  0.9435  0.2334
     2 H(1)   Bbb    -0.0039    -2.093    -0.747    -0.698  0.1687 -0.1969  0.9658
              Bcc     0.0142     7.567     2.700     2.524  0.9572  0.2666 -0.1128
 
              Baa    -0.0033    -1.735    -0.619    -0.579  0.1771  0.9578  0.2265
     3 H(1)   Bbb    -0.0003    -0.137    -0.049    -0.046  0.0557 -0.2395  0.9693
              Bcc     0.0035     1.873     0.668     0.625  0.9826 -0.1591 -0.0958
 
              Baa    -0.0055    -2.941    -1.049    -0.981  0.1640  0.9603 -0.2256
     4 H(1)   Bbb    -0.0001    -0.044    -0.016    -0.015  0.3311  0.1619  0.9296
              Bcc     0.0056     2.985     1.065     0.996  0.9292 -0.2271 -0.2914
 
              Baa    -0.0079    -1.059    -0.378    -0.353  0.7069  0.6008  0.3732
     5 C(13)  Bbb     0.0022     0.302     0.108     0.101 -0.5181  0.0807  0.8515
              Bcc     0.0056     0.757     0.270     0.253 -0.4814  0.7953 -0.3684
 
              Baa    -0.0112    -6.002    -2.142    -2.002  0.2533  0.4085  0.8769
     6 H(1)   Bbb     0.0004     0.217     0.077     0.072  0.3523  0.8053 -0.4769
              Bcc     0.0108     5.785     2.064     1.930  0.9010 -0.4297 -0.0601
 
              Baa    -0.0062    -3.312    -1.182    -1.105  0.8760  0.2693  0.4002
     7 H(1)   Bbb     0.0021     1.125     0.401     0.375 -0.3708  0.9065  0.2017
              Bcc     0.0041     2.187     0.780     0.729 -0.3085 -0.3251  0.8940
 
              Baa    -0.5993   -80.426   -28.698   -26.827  0.6753 -0.5785 -0.4575
     8 C(13)  Bbb     0.2974    39.911    14.241    13.313 -0.1162 -0.6960  0.7086
              Bcc     0.3019    40.515    14.457    13.515  0.7283  0.4253  0.5372
 
              Baa    -0.0489   -26.099    -9.313    -8.706  0.4435  0.8222 -0.3569
     9 H(1)   Bbb     0.0162     8.640     3.083     2.882 -0.4571  0.5500  0.6990
              Bcc     0.0327    17.459     6.230     5.824  0.7710 -0.1469  0.6197
 
              Baa    -0.0527   -28.110   -10.030    -9.377  0.2783 -0.2884  0.9162
    10 H(1)   Bbb     0.0211    11.259     4.017     3.756 -0.2299  0.9061  0.3551
              Bcc     0.0316    16.851     6.013     5.621  0.9326  0.3094 -0.1859
 
              Baa    -1.7787   128.707    45.926    42.932  0.7318 -0.1434  0.6663
    11 O(17)  Bbb     0.5478   -39.637   -14.144   -13.222 -0.5117  0.5301  0.6761
              Bcc     1.2309   -89.070   -31.782   -29.711  0.4502  0.8357 -0.3146
 
              Baa    -1.8179   131.541    46.937    43.877  0.7069 -0.1192  0.6972
    12 O(17)  Bbb    -0.1797    13.005     4.641     4.338 -0.5463  0.5342  0.6452
              Bcc     1.9976  -144.546   -51.578   -48.215  0.4493  0.8369 -0.3125
 

 ---------------------------------------------------------------------------------

 No NMR shielding tensors so no spin-rotation constants.
 Leave Link  601 at Wed Apr  1 01:04:15 2015, MaxMem= 3758096384 cpu:      12.1
 (Enter /share/apps/g09/l701.exe)
 Compute integral first derivatives.
 ... and contract with generalized density number  0.
 Leave Link  701 at Wed Apr  1 01:04:16 2015, MaxMem= 3758096384 cpu:       5.2
 (Enter /share/apps/g09/l702.exe)
 L702 exits ... SP integral derivatives will be done elsewhere.
 Leave Link  702 at Wed Apr  1 01:04:16 2015, MaxMem= 3758096384 cpu:       0.1
 (Enter /share/apps/g09/l703.exe)
 Compute integral first derivatives, UseDBF=F ICtDFT=           0.
 Integral derivatives from FoFDir, PRISM(SPDF).
 Calling FoFJK, ICntrl=      2127 FMM=F ISym2X=0 I1Cent= 0 IOpClX= 1 NMat=1 NMatS=1 NMatT=0.
 FoFCou: FMM=F IPFlag=           0 FMFlag=      100000 FMFlg1=         800
         NFxFlg=           0 DoJE=F BraDBF=F KetDBF=F FulRan=T
         Omega=  0.000000  0.000000  1.000000  0.000000  0.000000 ICntrl=    2127 IOpCl=  1
         NMat0=    1 NMatS0=    1 NMatT0=    0 NMatD0=    1 NMtDS0=    0 NMtDT0=    0
         I1Cent=           0 NGrid=           0.
 Symmetry not used in FoFCou.
 Leave Link  703 at Wed Apr  1 01:04:17 2015, MaxMem= 3758096384 cpu:      12.5
 (Enter /share/apps/g09/l716.exe)
 Dipole        =-1.02392826D+00 4.68496166D-01 1.11573216D-01
 ***** Axes restored to original set *****
 -------------------------------------------------------------------
 Center     Atomic                   Forces (Hartrees/Bohr)
 Number     Number              X              Y              Z
 -------------------------------------------------------------------
      1        6          -0.000258806    0.000178341   -0.000186030
      2        1           0.000041476   -0.000140095   -0.000011712
      3        1          -0.000055121   -0.000155676    0.000035041
      4        1           0.000028726    0.000003063    0.000022469
      5        6           0.001647588   -0.000421961   -0.000187194
      6        1          -0.000373675   -0.000152693   -0.000205658
      7        1          -0.000459904    0.000021360   -0.000019347
      8        6           0.011413455   -0.008528324   -0.006724053
      9        1           0.001137020   -0.000603347   -0.000826080
     10        1           0.001034584   -0.001115797   -0.000432893
     11        8          -0.005265135    0.009302891    0.016970447
     12        8          -0.008890208    0.001612237   -0.008434989
 -------------------------------------------------------------------
 Cartesian Forces:  Max     0.016970447 RMS     0.004748186
 Leave Link  716 at Wed Apr  1 01:04:17 2015, MaxMem= 3758096384 cpu:       0.2
 (Enter /share/apps/g09/l103.exe)

 GradGradGradGradGradGradGradGradGradGradGradGradGradGradGradGradGradGrad
 Berny optimization.
 Internal  Forces:  Max     0.010306756 RMS     0.002032652
 Search for a local minimum.
 Step number   1 out of a maximum of   79
 All quantities printed in internal units (Hartrees-Bohrs-Radians)
 RMS Force = .14656D-02 SwitMx=.10000D-02 MixMth= 1
 Mixed Optimization -- RFO/linear search
 Second derivative matrix not updated -- first step.
     Eigenvalues ---    0.00409   0.01106   0.01545   0.02641   0.03149
     Eigenvalues ---    0.03591   0.04427   0.05052   0.05842   0.06528
     Eigenvalues ---    0.07859   0.08652   0.08769   0.11263   0.11890
     Eigenvalues ---    0.12494   0.14719   0.15494   0.16981   0.27467
     Eigenvalues ---    0.29802   0.31199   0.31978   0.32926   0.33138
     Eigenvalues ---    0.33836   0.34087   0.34254   0.736301000.00000
     Eigenvalues --- 1000.000001000.000001000.000001000.000001000.00000
     Eigenvalues --- 1000.000001000.000001000.000001000.000001000.00000
     Eigenvalues --- 1000.000001000.000001000.000001000.000001000.00000
     Eigenvalues --- 1000.000001000.000001000.000001000.000001000.00000
     Eigenvalues --- 1000.000001000.000001000.000001000.000001000.00000
     Eigenvalues --- 1000.000001000.000001000.000001000.000001000.00000
     Eigenvalues --- 1000.000001000.000001000.000001000.000001000.00000
     Eigenvalues --- 1000.000001000.000001000.000001000.00000
 RFO step:  Lambda=-3.25715307D-04 EMin= 4.08748203D-03
 Linear search not attempted -- first point.
 Iteration  1 RMS(Cart)=  0.00629649 RMS(Int)=  0.00008901
 Iteration  2 RMS(Cart)=  0.00006186 RMS(Int)=  0.00005824
 Iteration  3 RMS(Cart)=  0.00000000 RMS(Int)=  0.00005824
 Iteration  1 RMS(Cart)=  0.00000116 RMS(Int)=  0.00000158
 Iteration  2 RMS(Cart)=  0.00000062 RMS(Int)=  0.00000176
 Variable       Old X    -DE/DX   Delta X   Delta X   Delta X     New X
                                 (Linear)    (Quad)   (Total)
    R1        2.06753  -0.00115   0.00000  -0.00004  -0.00003   2.06750
    R2        2.06903   0.00008   0.00000   0.00024   0.00024   2.06927
    R3        2.07183   0.00002   0.00000   0.00005   0.00005   2.07188
    R4        2.89575   0.00013   0.00000   0.00017   0.00018   2.89593
    R5        5.30477  -0.00076   0.00000  -0.00014  -0.00014   5.30463
    R6        2.07608   0.00017   0.00000   0.00049   0.00049   2.07657
    R7        2.08810   0.00035   0.00000   0.00107   0.00107   2.08917
    R8        2.81533   0.00040   0.00000  -0.00009  -0.00009   2.81524
    R9        2.05375   0.00204   0.00000   0.00067   0.00070   2.05444
   R10        2.05440   0.00092   0.00000   0.00098   0.00098   2.05538
   R11        4.08503  -0.00808   0.00000   0.00000  -0.00001   4.08503
   R12        4.78978  -0.00465   0.00000  -0.03992  -0.03994   4.74985
   R13        4.71757  -0.00338   0.00000  -0.01632  -0.01631   4.70125
   R14        5.22278  -0.00281   0.00000  -0.01002  -0.01001   5.21277
   R15        2.38259  -0.01031   0.00000  -0.01569  -0.01569   2.36690
    A1        1.89040  -0.00003   0.00000  -0.00011  -0.00010   1.89030
    A2        1.88393   0.00040   0.00000  -0.00043  -0.00044   1.88349
    A3        1.92993  -0.00068   0.00000  -0.00089  -0.00089   1.92904
    A4        1.88318  -0.00010   0.00000  -0.00006  -0.00006   1.88311
    A5        1.93606   0.00025   0.00000   0.00187   0.00186   1.93792
    A6        1.93848   0.00018   0.00000  -0.00041  -0.00040   1.93808
    A7        1.90350  -0.00126   0.00000  -0.00071  -0.00073   1.90277
    A8        1.93073  -0.00026   0.00000  -0.00148  -0.00148   1.92925
    A9        1.91644  -0.00068   0.00000  -0.00259  -0.00259   1.91385
   A10        1.98948   0.00095   0.00000   0.00024   0.00024   1.98972
   A11        1.83521   0.00008   0.00000  -0.00152  -0.00153   1.83368
   A12        1.90111   0.00014   0.00000   0.00380   0.00380   1.90491
   A13        1.88396  -0.00031   0.00000   0.00149   0.00149   1.88545
   A14        2.07123   0.00005   0.00000   0.00811   0.00783   2.07906
   A15        2.08356  -0.00174   0.00000   0.00476   0.00455   2.08811
   A16        1.82037  -0.00056   0.00000  -0.00467  -0.00467   1.81569
   A17        2.01026   0.00060   0.00000   0.00590   0.00562   2.01587
   A18        1.48698  -0.00444   0.00000   0.00441   0.00437   1.49135
   A19        1.17658   0.00127   0.00000   0.00010   0.00010   1.17668
   A20        1.58296   0.00204   0.00000   0.00559   0.00552   1.58848
   A21        1.19982   0.00078   0.00000  -0.00124  -0.00129   1.19852
   A22        2.04123   0.00142   0.00000   0.00281   0.00281   2.04404
   A23        1.95728   0.00228   0.00000   0.00661   0.00661   1.96389
   A24        0.74668   0.00138   0.00000   0.00651   0.00647   0.75315
   A25        1.93787   0.00142   0.00000   0.00340   0.00336   1.94123
    D1        2.48872  -0.00002   0.00000  -0.00330  -0.00329   2.48543
    D2       -1.75979   0.00005   0.00000  -0.00366  -0.00365  -1.76344
    D3        0.36388   0.00011   0.00000  -0.00498  -0.00497   0.35891
    D4        1.09360   0.00007   0.00000   0.00259   0.00259   1.09618
    D5        3.11144  -0.00038   0.00000  -0.00164  -0.00164   3.10980
    D6       -1.05570  -0.00063   0.00000  -0.00147  -0.00146  -1.05716
    D7       -1.00412   0.00040   0.00000   0.00208   0.00208  -1.00204
    D8        1.01373  -0.00005   0.00000  -0.00215  -0.00215   1.01158
    D9        3.12977  -0.00030   0.00000  -0.00197  -0.00196   3.12780
   D10       -3.09841   0.00024   0.00000   0.00119   0.00119  -3.09722
   D11       -1.08056  -0.00021   0.00000  -0.00304  -0.00304  -1.08360
   D12        1.03548  -0.00046   0.00000  -0.00286  -0.00286   1.03262
   D13        0.15630  -0.00007   0.00000   0.00676   0.00674   0.16305
   D14       -0.01586  -0.00045   0.00000   0.00592   0.00594  -0.00992
   D15        0.64034   0.00028   0.00000   0.00940   0.00938   0.64972
   D16        1.97612   0.00268   0.00000   0.01364   0.01363   1.98975
   D17        3.03030   0.00145   0.00000  -0.02077  -0.02082   3.00948
   D18       -0.63822  -0.00062   0.00000   0.01959   0.01964  -0.61858
   D19        1.17346   0.00068   0.00000   0.00698   0.00695   1.18041
   D20        0.86497   0.00099   0.00000  -0.02194  -0.02198   0.84300
   D21       -2.80355  -0.00108   0.00000   0.01843   0.01848  -2.78507
   D22       -0.99186   0.00022   0.00000   0.00581   0.00579  -0.98607
   D23       -1.11890   0.00098   0.00000  -0.02284  -0.02288  -1.14179
   D24        1.49576  -0.00108   0.00000   0.01752   0.01758   1.51334
   D25       -2.97574   0.00022   0.00000   0.00491   0.00488  -2.97085
   D26        2.07672   0.00020   0.00000  -0.00942  -0.00946   2.06726
   D27       -1.57414  -0.00193   0.00000   0.03025   0.03025  -1.54389
   D28       -0.59797   0.00036   0.00000  -0.00439  -0.00436  -0.60233
   D29       -2.53782  -0.00093   0.00000  -0.00564  -0.00564  -2.54346
         Item               Value     Threshold  Converged?
 Maximum Force            0.011345     0.000450     NO 
 RMS     Force            0.001466     0.000300     NO 
 Maximum Displacement     0.026791     0.001800     NO 
 RMS     Displacement     0.006289     0.001200     NO 
 Predicted change in Energy=-1.646464D-04
 GradGradGradGradGradGradGradGradGradGradGradGradGradGradGradGradGradGrad

 Leave Link  103 at Wed Apr  1 01:04:18 2015, MaxMem= 3758096384 cpu:       1.6
 (Enter /share/apps/g09/l202.exe)
                          Input orientation:                          
 ---------------------------------------------------------------------
 Center     Atomic      Atomic             Coordinates (Angstroms)
 Number     Number       Type             X           Y           Z
 ---------------------------------------------------------------------
      1          6           0       -1.783725   -0.938474    0.153193
      2          1           0       -0.979414   -1.622101   -0.134446
      3          1           0       -2.711073   -1.280941   -0.317751
      4          1           0       -1.912373   -1.007262    1.239836
      5          6           0       -1.447986    0.495168   -0.271519
      6          1           0       -1.365429    0.563943   -1.365128
      7          1           0       -2.283537    1.167705   -0.003619
      8          6           0       -0.204976    1.035117    0.347160
      9          1           0        0.179440    1.994932    0.011145
     10          1           0        0.051852    0.759015    1.367363
     11          8           0        1.375495   -0.147486   -0.534046
     12          8           0        2.320505   -0.354344    0.261532
 ---------------------------------------------------------------------
                    Distance matrix (angstroms):
                    1          2          3          4          5
     1  C    0.000000
     2  H    1.094075   0.000000
     3  H    1.095009   1.774439   0.000000
     4  H    1.096392   1.771184   1.771694   0.000000
     5  C    1.532459   2.172826   2.179929   2.181088   0.000000
     6  H    2.176586   2.538183   2.512240   3.090901   1.098875
     7  H    2.170343   3.082348   2.505460   2.532671   1.105542
     8  C    2.534785   2.809360   3.476601   2.807737   1.489759
     9  H    3.532573   3.800930   4.381162   3.859862   2.231078
    10  H    2.779392   2.998108   3.825544   2.644651   2.237200
    11  O    3.328458   2.807092   4.246356   3.833529   2.907570
    12  O    4.147006   3.557172   5.148877   4.393249   3.899659
                    6          7          8          9         10
     6  H    0.000000
     7  H    1.749616   0.000000
     8  C    2.121459   2.112118   0.000000
     9  H    2.515647   2.598226   1.087164   0.000000
    10  H    3.084355   2.738734   1.087661   1.839320   0.000000
    11  O    2.951185   3.924231   2.161703   2.513511   2.487796
    12  O    4.132238   4.856351   2.883745   3.188409   2.758481
                   11         12
    11  O    0.000000
    12  O    1.252510   0.000000
 Stoichiometry    C3H7O2(2)
 Framework group  C1[X(C3H7O2)]
 Deg. of freedom    30
 Full point group                 C1      NOp   1
 Largest Abelian subgroup         C1      NOp   1
 Largest concise Abelian subgroup C1      NOp   1
                         Standard orientation:                         
 ---------------------------------------------------------------------
 Center     Atomic      Atomic             Coordinates (Angstroms)
 Number     Number       Type             X           Y           Z
 ---------------------------------------------------------------------
      1          6           0       -1.784639   -0.936206    0.152725
      2          1           0       -0.981641   -1.622588   -0.132007
      3          1           0       -2.712108   -1.277366   -0.318928
      4          1           0       -1.915228   -1.002118    1.239314
      5          6           0       -1.444487    0.495562   -0.274786
      6          1           0       -1.359978    0.561565   -1.368417
      7          1           0       -2.278722    1.170890   -0.009818
      8          6           0       -0.201084    1.033730    0.344654
      9          1           0        0.186369    1.991757    0.007026
     10          1           0        0.053370    0.759350    1.365916
     11          8           0        1.377736   -0.155027   -0.531214
     12          8           0        2.320914   -0.362474    0.266384
 ---------------------------------------------------------------------
 Rotational constants (GHZ):      9.3674082      2.3816575      2.1164824
 Leave Link  202 at Wed Apr  1 01:04:18 2015, MaxMem= 3758096384 cpu:       0.5
 (Enter /share/apps/g09/l301.exe)
 Standard basis: 6-31G(d) (6D, 7F)
 Ernie: Thresh=  0.10000D-02 Tol=  0.10000D-05 Strict=F.
 There are    89 symmetry adapted basis functions of A   symmetry.
 Integral buffers will be    131072 words long.
 Raffenetti 2 integral format.
 Two-electron integral symmetry is turned on.
    89 basis functions,   168 primitive gaussians,    89 cartesian basis functions
    21 alpha electrons       20 beta electrons
       nuclear repulsion energy       169.5915581555 Hartrees.
 IExCor=  402 DFT=T Ex+Corr=B3LYP ExCW=0 ScaHFX=  0.200000
 ScaDFX=  0.800000  0.720000  1.000000  0.810000 ScalE2=  1.000000  1.000000
 IRadAn=      0 IRanWt=     -1 IRanGd=            0 ICorTp=0
 NAtoms=   12 NActive=   12 NUniq=   12 SFac= 7.50D-01 NAtFMM=   80 NAOKFM=F Big=F
 Leave Link  301 at Wed Apr  1 01:04:18 2015, MaxMem= 3758096384 cpu:       0.5
 (Enter /share/apps/g09/l302.exe)
 NPDir=0 NMtPBC=     1 NCelOv=     1 NCel=       1 NClECP=     1 NCelD=      1
         NCelK=      1 NCelE2=     1 NClLst=     1 CellRange=     0.0.
 One-electron integrals computed using PRISM.
 NBasis=    89 RedAO= T  NBF=    89
 NBsUse=    89 1.00D-06 NBFU=    89
 Precomputing XC quadrature grid using
 IXCGrd= 2 IRadAn=           0 IRanWt=          -1 IRanGd=           0 AccXCQ= 1.00D-10.
 NRdTot=     742 NPtTot=       94340 NUsed=       99703 NTot=       99735
 NSgBfM=    89    89    89    89    89 NAtAll=    12    12.
 Leave Link  302 at Wed Apr  1 01:04:19 2015, MaxMem= 3758096384 cpu:       4.6
 (Enter /share/apps/g09/l303.exe)
 DipDrv:  MaxL=1.
 Leave Link  303 at Wed Apr  1 01:04:19 2015, MaxMem= 3758096384 cpu:       0.7
 (Enter /share/apps/g09/l401.exe)
 Initial guess read from the read-write file.
 B after Tr=     0.000000    0.000000    0.000000
         Rot=    1.000000    0.000000    0.000000    0.000000 Ang=   0.00 deg.
 Guess basis will be translated and rotated to current coordinates.
 Initial guess orbital symmetries:
 Alpha Orbitals:
       Occupied  (A) (A) (A) (A) (A) (A) (A) (A) (A) (A) (A) (A)
                 (A) (A) (A) (A) (A) (A) (A) (A) (A)
       Virtual   (A) (A) (A) (A) (A) (A) (A) (A) (A) (A) (A) (A)
                 (A) (A) (A) (A) (A) (A) (A) (A) (A) (A) (A) (A)
                 (A) (A) (A) (A) (A) (A) (A) (A) (A) (A) (A) (A)
                 (A) (A) (A) (A) (A) (A) (A) (A) (A) (A) (A) (A)
                 (A) (A) (A) (A) (A) (A) (A) (A) (A) (A) (A) (A)
                 (A) (A) (A) (A) (A) (A) (A) (A)
 Beta  Orbitals:
       Occupied  (A) (A) (A) (A) (A) (A) (A) (A) (A) (A) (A) (A)
                 (A) (A) (A) (A) (A) (A) (A) (A)
       Virtual   (A) (A) (A) (A) (A) (A) (A) (A) (A) (A) (A) (A)
                 (A) (A) (A) (A) (A) (A) (A) (A) (A) (A) (A) (A)
                 (A) (A) (A) (A) (A) (A) (A) (A) (A) (A) (A) (A)
                 (A) (A) (A) (A) (A) (A) (A) (A) (A) (A) (A) (A)
                 (A) (A) (A) (A) (A) (A) (A) (A) (A) (A) (A) (A)
                 (A) (A) (A) (A) (A) (A) (A) (A) (A)
 The electronic state of the initial guess is 2-A.
 Initial guess <Sx>= 0.0000 <Sy>= 0.0000 <Sz>= 0.5000 <S**2>= 1.1155 S= 0.6685
 Generating alternative initial guess.
 Harris functional with IExCor=  402 diagonalized for initial guess.
 ExpMin= 1.61D-01 ExpMax= 5.48D+03 ExpMxC= 8.25D+02 IAcc=1 IRadAn=         1 AccDes= 0.00D+00
 HarFok:  IExCor=  402 AccDes= 0.00D+00 IRadAn=         1 IDoV= 1
 ScaDFX=  1.000000  1.000000  1.000000  1.000000
 FoFCou: FMM=F IPFlag=           0 FMFlag=      100000 FMFlg1=           0
         NFxFlg=           0 DoJE=T BraDBF=F KetDBF=T FulRan=T
         Omega=  0.000000  0.000000  1.000000  0.000000  0.000000 ICntrl=     500 IOpCl=  0
         NMat0=    1 NMatS0=    1 NMatT0=    0 NMatD0=    1 NMtDS0=    0 NMtDT0=    0
         I1Cent=           4 NGrid=           0.
 Petite list used in FoFCou.
 Harris En= -268.835635669011    
 Leave Link  401 at Wed Apr  1 01:04:20 2015, MaxMem= 3758096384 cpu:       9.2
 (Enter /share/apps/g09/l508.exe)
 Direct SCF.
 Tight linear equation convergence will be used.
 UB3LYP wavefunction.
 Quadratic Convergence SCF Method.
 Line search only if initial step raises energy.
 Integral symmetry usage will be decided dynamically.
 ReadGW:  IGet=1 IStart=           2 Next=       99584 LGW=       99582.
 Pruned (  75, 302) grid will be used in CalDFT.
 Keep R1 and R2 ints in memory in canonical form, NReq=17125503.
 Symmetry not used in FoFDir.
 MinBra= 0 MaxBra= 2 Meth= 1.
 IRaf=       0 NMat=   1 IRICut=       1 DoRegI=T DoRafI=F ISym2E= 0 JSym2E=0.
 Iteration   1 EE= -268.801126500409                                    Grad=1.374D-02
 Gradient too large for Newton-Raphson -- use scaled steepest descent instead.
     ILin= 1 X=0.000D+00 Y=-2.688011265004D+02 DE= 0.00D+00
     ILin= 2 X=3.000D-01 Y=-2.688012067231D+02 DE=-8.02D-05
     ILin= 3 X=4.243D-01 Y=-2.688012323615D+02 DE=-1.06D-04
     ILin= 4 X=6.000D-01 Y=-2.688012610280D+02 DE=-1.35D-04
     ILin= 5 X=8.485D-01 Y=-2.688012863839D+02 DE=-1.60D-04
     ILin= 6 X=1.200D+00 Y=-2.688012918699D+02 DE=-1.65D-04
     ILin= 7 X=1.697D+00 Y=-2.688012388737D+02 DE=-1.12D-04
     An  expanding polynomial of degree  7 produced  1.0785
 Iteration   2 EE= -268.801293998041     Delta-E=       -0.000167497632 Grad=2.589D-03
 QCNR:  CnvC1=5.30D-09 CnvC2=5.30D-08
 LinEq1:  Iter=  0 NonCon=     1 RMS=6.69D-05 Max=1.59D-03
 AX will form     1 AO Fock derivatives at one time.
 LinEq1:  Iter=  1 NonCon=     1 RMS=1.12D-04 Max=5.03D-03
 LinEq1:  Iter=  2 NonCon=     1 RMS=7.65D-05 Max=1.69D-03
 LinEq1:  Iter=  3 NonCon=     1 RMS=4.44D-05 Max=1.20D-03
 LinEq1:  Iter=  4 NonCon=     1 RMS=5.77D-05 Max=1.42D-03
 LinEq1:  Iter=  5 NonCon=     1 RMS=3.93D-05 Max=8.71D-04
 LinEq1:  Iter=  6 NonCon=     1 RMS=1.30D-05 Max=1.76D-04
 LinEq1:  Iter=  7 NonCon=     1 RMS=7.18D-06 Max=1.16D-04
 LinEq1:  Iter=  8 NonCon=     1 RMS=3.15D-06 Max=4.48D-05
 LinEq1:  Iter=  9 NonCon=     1 RMS=1.14D-06 Max=1.56D-05
 LinEq1:  Iter= 10 NonCon=     1 RMS=3.42D-07 Max=3.93D-06
 LinEq1:  Iter= 11 NonCon=     1 RMS=1.69D-07 Max=2.87D-06
 LinEq1:  Iter= 12 NonCon=     1 RMS=8.76D-08 Max=2.88D-06
 LinEq1:  Iter= 13 NonCon=     1 RMS=3.25D-08 Max=8.41D-07
 LinEq1:  Iter= 14 NonCon=     1 RMS=8.28D-09 Max=1.25D-07
 LinEq1:  Iter= 15 NonCon=     0 RMS=2.15D-09 Max=2.63D-08
 Linear equations converged to 5.299D-09 5.299D-08 after    15 iterations.
 Angle between quadratic step and gradient=  65.94 degrees.
     ILin= 1 X=0.000D+00 Y=-2.688012939980D+02 DE= 0.00D+00
     ILin= 2 X=1.000D+00 Y=-2.688012998332D+02 DE=-5.84D-06
     ILin= 3 X=1.414D+00 Y=-2.688012988210D+02 DE=-4.82D-06
     An  expanding polynomial of degree  3 produced  0.9984
 Iteration   3 EE= -268.801299833219     Delta-E=       -0.000005835178 Grad=7.286D-06
 QCNR:  CnvC1=7.29D-11 CnvC2=7.29D-10
 LinEq1:  Iter=  0 NonCon=     1 RMS=3.87D-07 Max=1.77D-05
 LinEq1:  Iter=  1 NonCon=     1 RMS=4.87D-07 Max=2.04D-05
 LinEq1:  Iter=  2 NonCon=     1 RMS=2.02D-07 Max=3.20D-06
 LinEq1:  Iter=  3 NonCon=     1 RMS=2.53D-07 Max=7.52D-06
 LinEq1:  Iter=  4 NonCon=     1 RMS=1.96D-07 Max=3.75D-06
 LinEq1:  Iter=  5 NonCon=     1 RMS=8.53D-08 Max=1.57D-06
 LinEq1:  Iter=  6 NonCon=     1 RMS=4.18D-08 Max=6.75D-07
 LinEq1:  Iter=  7 NonCon=     1 RMS=1.88D-08 Max=2.14D-07
 LinEq1:  Iter=  8 NonCon=     1 RMS=6.46D-09 Max=9.18D-08
 LinEq1:  Iter=  9 NonCon=     1 RMS=2.57D-09 Max=4.14D-08
 LinEq1:  Iter= 10 NonCon=     1 RMS=8.64D-10 Max=2.19D-08
 LinEq1:  Iter= 11 NonCon=     1 RMS=5.23D-10 Max=1.37D-08
 LinEq1:  Iter= 12 NonCon=     1 RMS=2.85D-10 Max=6.47D-09
 LinEq1:  Iter= 13 NonCon=     1 RMS=8.92D-11 Max=1.18D-09
 LinEq1:  Iter= 14 NonCon=     0 RMS=1.89D-11 Max=2.52D-10
 Linear equations converged to 7.286D-11 7.286D-10 after    14 iterations.
 Angle between quadratic step and gradient=  63.84 degrees.
     ILin= 1 X=0.000D+00 Y=-2.688012998332D+02 DE= 0.00D+00
     ILin= 2 X=1.000D+00 Y=-2.688012998333D+02 DE=-9.35D-11
 Iteration   4 EE= -268.801299833312     Delta-E=       -0.000000000093 Grad=1.815D-10
 Rotation gradient small -- convergence achieved.
 SCF Done:  E(UB3LYP) =  -268.801299833     a.u. after    4 cycles
            Convg  =    0.1815D-09                    41 Fock formations.
              S**2 =  1.1258                  -V/T =  2.0095
 <Sx>= 0.0000 <Sy>= 0.0000 <Sz>= 0.5000 <S**2>= 1.1258 S= 0.6729
 <L.S>= 0.000000000000E+00
 Annihilation of the first spin contaminant:
 S**2 before annihilation     1.1258,   after     0.7555
 Leave Link  508 at Wed Apr  1 01:04:46 2015, MaxMem= 3758096384 cpu:     266.7
 (Enter /share/apps/g09/l701.exe)
 Compute integral first derivatives.
 ... and contract with generalized density number  0.
 Leave Link  701 at Wed Apr  1 01:04:46 2015, MaxMem= 3758096384 cpu:       6.0
 (Enter /share/apps/g09/l702.exe)
 L702 exits ... SP integral derivatives will be done elsewhere.
 Leave Link  702 at Wed Apr  1 01:04:46 2015, MaxMem= 3758096384 cpu:       0.1
 (Enter /share/apps/g09/l703.exe)
 Compute integral first derivatives, UseDBF=F ICtDFT=           0.
 Integral derivatives from FoFDir, PRISM(SPDF).
 Calling FoFJK, ICntrl=      2127 FMM=F ISym2X=0 I1Cent= 0 IOpClX= 1 NMat=1 NMatS=1 NMatT=0.
 FoFCou: FMM=F IPFlag=           0 FMFlag=      100000 FMFlg1=         800
         NFxFlg=           0 DoJE=F BraDBF=F KetDBF=F FulRan=T
         Omega=  0.000000  0.000000  1.000000  0.000000  0.000000 ICntrl=    2127 IOpCl=  1
         NMat0=    1 NMatS0=    1 NMatT0=    0 NMatD0=    1 NMtDS0=    0 NMtDT0=    0
         I1Cent=           0 NGrid=           0.
 Symmetry not used in FoFCou.
 Leave Link  703 at Wed Apr  1 01:04:48 2015, MaxMem= 3758096384 cpu:      14.9
 (Enter /share/apps/g09/l716.exe)
 Dipole        =-9.98576867D-01 4.56427741D-01 1.05132082D-01
 ***** Axes restored to original set *****
 -------------------------------------------------------------------
 Center     Atomic                   Forces (Hartrees/Bohr)
 Number     Number              X              Y              Z
 -------------------------------------------------------------------
      1        6           0.000071372    0.000054949    0.000024326
      2        1           0.000025132   -0.000251107   -0.000018101
      3        1           0.000024207    0.000028933    0.000004277
      4        1          -0.000005662   -0.000019249    0.000016768
      5        6           0.000510796    0.000290549    0.000135471
      6        1           0.000033164   -0.000009358    0.000009062
      7        1          -0.000234012   -0.000087746   -0.000126673
      8        6           0.012510114   -0.008962912   -0.007097593
      9        1           0.000027676   -0.000560126   -0.000119212
     10        1           0.000269641   -0.000382660   -0.000674363
     11        8          -0.010926209    0.009630068    0.010436427
     12        8          -0.002306217    0.000268659   -0.002590388
 -------------------------------------------------------------------
 Cartesian Forces:  Max     0.012510114 RMS     0.004156233
 Leave Link  716 at Wed Apr  1 01:04:48 2015, MaxMem= 3758096384 cpu:       0.2
 (Enter /share/apps/g09/l103.exe)

 GradGradGradGradGradGradGradGradGradGradGradGradGradGradGradGradGradGrad
 Berny optimization.
 Using GEDIIS/GDIIS optimizer.
 Internal  Forces:  Max     0.008124271 RMS     0.001493088
 Search for a local minimum.
 Step number   2 out of a maximum of   79
 All quantities printed in internal units (Hartrees-Bohrs-Radians)
 RMS Force = .43481D-03 SwitMx=.10000D-02 MixMth= 2
 Mixed Optimization -- En-DIIS/RFO-DIIS
 Update second derivatives using D2CorX and points    1    2
 DE= -2.11D-04 DEPred=-1.65D-04 R= 1.28D+00
 SS=  1.41D+00  RLast= 8.14D-02 DXNew= 5.0454D-01 2.4407D-01
 Trust test= 1.28D+00 RLast= 8.14D-02 DXMaxT set to 3.00D-01
 Use linear search instead of GDIIS.
     Eigenvalues ---    0.00407   0.01089   0.01453   0.02565   0.03060
     Eigenvalues ---    0.03597   0.04435   0.05021   0.05811   0.06541
     Eigenvalues ---    0.07584   0.08605   0.08804   0.11264   0.11906
     Eigenvalues ---    0.12589   0.14709   0.15520   0.16998   0.27462
     Eigenvalues ---    0.30136   0.31316   0.31938   0.32919   0.33129
     Eigenvalues ---    0.33841   0.34087   0.34257   0.616631000.00000
     Eigenvalues --- 1000.000001000.000001000.000001000.000001000.00000
     Eigenvalues --- 1000.000001000.000001000.000001000.000001000.00000
     Eigenvalues --- 1000.000001000.000001000.000001000.000001000.00000
     Eigenvalues --- 1000.000001000.000001000.000001000.000001000.00000
     Eigenvalues --- 1000.000001000.000001000.000001000.000001000.00000
     Eigenvalues --- 1000.000001000.000001000.000001000.000001000.00000
     Eigenvalues --- 1000.000001000.000001000.000001000.000001000.00000
     Eigenvalues --- 1000.000001000.000001000.000001000.00000
 RFO step:  Lambda=-1.58006075D-05 EMin= 4.07122127D-03
 Quartic linear search produced a step of  0.41347.
[...]
     31  0.190587D-02  0.516336D-01 -0.486563D-01 -0.307004D-01 -0.967084D-03
     32 -0.988148D-03 -0.350232D-01  0.111465D-01  0.786475D-02  0.648095D-02
     33  0.119084D-02 -0.732895D-02 -0.608301D-02 -0.343894D-01  0.888675D-03
     34 -0.219560D-02 -0.267725D-01  0.183757D-01  0.330279D-02 -0.140614D-02
     35  0.613934D-03  0.822061D-02 -0.177683D-02  0.667342D-02  0.857199D-04
     36 -0.152115D-02 -0.162403D-01  0.199165D-01  0.228714D-01 -0.453708D-03
               26            27            28            29            30 
     26  0.283280D+00
     27 -0.952084D-01  0.751038D-01
     28 -0.378620D-02  0.909289D-02  0.565566D-01
     29 -0.175630D-02  0.252137D-01 -0.814730D-02  0.644218D-01
     30 -0.736111D-05 -0.324709D-02  0.801333D-01 -0.880832D-01  0.315227D+00
     31 -0.436066D-03  0.121713D-02 -0.266175D-02  0.345539D-02 -0.403476D-03
     32 -0.277539D-02 -0.469259D-02  0.275130D-02 -0.297658D-02 -0.139876D-02
     33 -0.129258D-02 -0.867646D-03  0.104969D-01 -0.919399D-02 -0.573896D-02
     34  0.196731D-02  0.472104D-03  0.130659D-02 -0.172276D-02  0.834132D-03
     35 -0.307224D-03 -0.124881D-03 -0.144478D-02  0.115942D-02  0.584903D-03
     36  0.929762D-03  0.352028D-03 -0.271674D-02  0.176365D-02  0.266481D-02
               31            32            33            34            35 
     31  0.276859D+00
     32 -0.353705D-01  0.152789D-01
     33  0.276070D+00 -0.384151D-01  0.291143D+00
     34 -0.330405D+00  0.682069D-01 -0.279642D+00  0.369966D+00
     35  0.785492D-01 -0.228211D-01  0.512868D-01 -0.903588D-01  0.260390D-01
     36 -0.251582D+00  0.359296D-01 -0.254772D+00  0.275253D+00 -0.573096D-01
               36 
     36  0.231702D+00
 Leave Link  716 at Wed Apr  1 01:08:11 2015, MaxMem= 3758096384 cpu:       3.3
 (Enter /share/apps/g09/l103.exe)

 GradGradGradGradGradGradGradGradGradGradGradGradGradGradGradGradGradGrad
 Berny optimization.
 Internal  Forces:  Max     0.008160808 RMS     0.001438762
 Search for a local minimum.
 Step number   1 out of a maximum of    2
 All quantities printed in internal units (Hartrees-Bohrs-Radians)
 Second derivative matrix not updated -- analytic derivatives used.
     Eigenvalues ---    0.00036   0.00061   0.00162   0.00355   0.00531
     Eigenvalues ---    0.01111   0.02396   0.02898   0.03409   0.03914
     Eigenvalues ---    0.04254   0.05197   0.06994   0.08344   0.09015
     Eigenvalues ---    0.09545   0.09723   0.11543   0.15355   0.25752
     Eigenvalues ---    0.27767   0.30252   0.31513   0.31827   0.32441
     Eigenvalues ---    0.33399   0.33775   0.34502   0.545081000.00000
     Eigenvalues --- 1000.000001000.000001000.000001000.000001000.00000
     Eigenvalues --- 1000.000001000.000001000.000001000.000001000.00000
     Eigenvalues --- 1000.000001000.000001000.000001000.000001000.00000
     Eigenvalues --- 1000.000001000.000001000.000001000.000001000.00000
     Eigenvalues --- 1000.000001000.000001000.000001000.000001000.00000
     Eigenvalues --- 1000.000001000.000001000.000001000.000001000.00000
     Eigenvalues --- 1000.000001000.000001000.000001000.000001000.00000
     Eigenvalues --- 1000.000001000.000001000.000001000.00000
 Angle between quadratic step and forces=  77.20 degrees.
 Linear search not attempted -- first point.
 Iteration  1 RMS(Cart)=  0.00177037 RMS(Int)=  0.00000445
 Iteration  2 RMS(Cart)=  0.00000343 RMS(Int)=  0.00000115
 Iteration  3 RMS(Cart)=  0.00000000 RMS(Int)=  0.00000115
 Iteration  1 RMS(Cart)=  0.00000001 RMS(Int)=  0.00000001
 Variable       Old X    -DE/DX   Delta X   Delta X   Delta X     New X
                                 (Linear)    (Quad)   (Total)
    R1        2.06800  -0.00122   0.00000  -0.00003  -0.00003   2.06797
    R2        2.06926   0.00000   0.00000  -0.00001  -0.00001   2.06925
    R3        2.07199   0.00000   0.00000  -0.00001  -0.00001   2.07198
    R4        2.89657   0.00002   0.00000  -0.00001  -0.00001   2.89656
    R5        5.28009  -0.00080   0.00000   0.00188   0.00188   5.28197
    R6        2.07699   0.00000   0.00000   0.00000   0.00000   2.07699
    R7        2.08918   0.00000   0.00000  -0.00001  -0.00001   2.08918
    R8        2.81374   0.00053   0.00000   0.00001   0.00001   2.81375
    R9        2.05287   0.00156   0.00000  -0.00001  -0.00001   2.05286
   R10        2.05367   0.00086   0.00000   0.00000   0.00000   2.05367
   R11        4.08503  -0.00816   0.00000   0.00000   0.00000   4.08503
   R12        4.74675  -0.00399   0.00000  -0.00097  -0.00097   4.74578
   R13        4.68905  -0.00305   0.00000   0.00138   0.00138   4.69043
   R14        5.23229  -0.00138   0.00000   0.00496   0.00496   5.23725
   R15        2.36060   0.00107   0.00000  -0.00004  -0.00004   2.36056
    A1        1.88940   0.00005   0.00000   0.00007   0.00007   1.88947
    A2        1.88345   0.00034   0.00000   0.00003   0.00003   1.88348
    A3        1.93133  -0.00058   0.00000  -0.00021  -0.00021   1.93112
    A4        1.88261  -0.00005   0.00000   0.00005   0.00005   1.88266
    A5        1.93713   0.00016   0.00000   0.00007   0.00007   1.93721
    A6        1.93795   0.00011   0.00000   0.00000   0.00000   1.93795
    A7        1.89938  -0.00129   0.00000   0.00022   0.00022   1.89961
    A8        1.92826  -0.00001   0.00000  -0.00001  -0.00001   1.92825
    A9        1.91277  -0.00054   0.00000   0.00008   0.00008   1.91285
   A10        1.98912   0.00092   0.00000  -0.00006  -0.00006   1.98906
   A11        1.83262   0.00014   0.00000   0.00001   0.00001   1.83264
   A12        1.90302  -0.00017   0.00000  -0.00001  -0.00001   1.90301
   A13        1.89117  -0.00041   0.00000  -0.00001  -0.00001   1.89116
   A14        2.08235  -0.00057   0.00000  -0.00013  -0.00013   2.08221
   A15        2.09114  -0.00135   0.00000  -0.00006  -0.00005   2.09109
   A16        1.79992  -0.00060   0.00000   0.00010   0.00010   1.80002
   A17        2.02054   0.00065   0.00000   0.00005   0.00005   2.02059
   A18        1.49209  -0.00241   0.00000  -0.00185  -0.00185   1.49023
   A19        1.18250   0.00128   0.00000  -0.00067  -0.00067   1.18182
   A20        1.59554   0.00183   0.00000  -0.00044  -0.00044   1.59510
   A21        1.19861   0.00094   0.00000  -0.00096  -0.00096   1.19765
   A22        2.04805   0.00052   0.00000   0.00499   0.00499   2.05304
   A23        1.97838   0.00061   0.00000   0.00062   0.00062   1.97899
   A24        0.75493   0.00122   0.00000  -0.00002  -0.00002   0.75492
   A25        1.94959   0.00032   0.00000  -0.00199  -0.00199   1.94759
    D1        2.47333  -0.00018   0.00000  -0.00155  -0.00155   2.47179
    D2       -1.77663  -0.00004   0.00000  -0.00144  -0.00144  -1.77806
    D3        0.34694  -0.00004   0.00000  -0.00155  -0.00155   0.34539
    D4        1.08976  -0.00002   0.00000   0.00083   0.00083   1.09059
    D5        3.10090  -0.00017   0.00000   0.00089   0.00089   3.10179
    D6       -1.05987  -0.00047   0.00000   0.00089   0.00090  -1.05898
    D7       -1.00833   0.00020   0.00000   0.00083   0.00083  -1.00750
    D8        1.00281   0.00005   0.00000   0.00089   0.00089   1.00370
    D9        3.12522  -0.00025   0.00000   0.00090   0.00090   3.12612
   D10       -3.10227   0.00009   0.00000   0.00073   0.00073  -3.10155
   D11       -1.09113  -0.00006   0.00000   0.00079   0.00079  -1.09035
   D12        1.03128  -0.00036   0.00000   0.00079   0.00079   1.03207
   D13        0.17898   0.00016   0.00000   0.00170   0.00170   0.18068
   D14        0.00935  -0.00032   0.00000   0.00194   0.00194   0.01129
   D15        0.66648   0.00044   0.00000   0.00169   0.00169   0.66817
   D16        2.02380   0.00126   0.00000   0.00074   0.00074   2.02454
   D17        3.00918   0.00188   0.00000   0.00061   0.00060   3.00978
   D18       -0.59186  -0.00103   0.00000   0.00028   0.00028  -0.59158
   D19        1.19048   0.00072   0.00000   0.00126   0.00126   1.19174
   D20        0.84587   0.00137   0.00000   0.00067   0.00067   0.84654
   D21       -2.75517  -0.00154   0.00000   0.00034   0.00034  -2.75482
   D22       -0.97282   0.00020   0.00000   0.00132   0.00132  -0.97150
   D23       -1.13968   0.00150   0.00000   0.00066   0.00066  -1.13902
   D24        1.54246  -0.00141   0.00000   0.00034   0.00034   1.54280
   D25       -2.95838   0.00034   0.00000   0.00132   0.00132  -2.95706
   D26        2.04877   0.00095   0.00000   0.00270   0.00270   2.05147
   D27       -1.53663  -0.00215   0.00000   0.00234   0.00234  -1.53429
   D28       -0.61185   0.00028   0.00000  -0.00100  -0.00100  -0.61285
   D29       -2.55516  -0.00052   0.00000  -0.00623  -0.00623  -2.56139
         Item               Value     Threshold  Converged?
 Maximum Force            0.000018     0.000450     YES
 RMS     Force            0.000006     0.000300     YES
 Maximum Displacement     0.007803     0.001800     NO 
 RMS     Displacement     0.001771     0.001200     NO 
 Predicted change in Energy=-6.942618D-08
 GradGradGradGradGradGradGradGradGradGradGradGradGradGradGradGradGradGrad

 Leave Link  103 at Wed Apr  1 01:08:12 2015, MaxMem= 3758096384 cpu:       1.5
 (Enter /share/apps/g09/l9999.exe)
 1\1\GINC-COMPUTE-0-14\Freq\UB3LYP\6-31G(d)\C3H7O2(2)\HETANJIN\01-Apr-2
 015\0\\#P Geom=AllCheck Guess=TCheck SCRF=Check GenChk UB3LYP/6-31G(d)
  Freq\\C3H7O2_62_b3631gd using cbs-qb3 to calculate energy\\0,2\C,-1.7
 814722894,-0.9367948829,0.1562526922\H,-0.9747478436,-1.6222075506,-0.
 1212055239\H,-2.7043972528,-1.2821400745,-0.3212237371\H,-1.920075143,
 -1.0009927536,1.242009808\C,-1.4448045052,0.4960313716,-0.2716884902\H
 ,-1.3473368065,0.5580915608,-1.3646916068\H,-2.2880697243,1.1656199865
 ,-0.0211091377\C,-0.2103202561,1.0409928539,0.357661806\H,0.1782614995
 ,1.9990230381,0.0240405879\H,0.0516848153,0.7522565399,1.3720678993\O,
 1.3607660826,-0.1453794895,-0.5351807111\O,2.3192914236,-0.3592295996,
 0.2367854134\\Version=EM64L-G09RevA.01\State=2-A\HF=-268.8013385\S2=1.
 131609\S2-1=0.\S2A=0.755626\RMSD=0.000e+00\RMSF=4.129e-03\ZeroPoint=0.
 0956516\Thermal=0.1024719\Dipole=-0.983916,0.4484613,0.1119873\DipoleD
 eriv=0.0759732,-0.0119077,0.0100131,0.049689,0.0262572,0.0012605,-0.06
 84917,0.004569,0.1190337,-0.0190946,0.1001489,0.038353,0.0380089,-0.01
 62235,-0.0030216,0.0440671,-0.0166051,0.0470304,-0.1077355,-0.0842983,
 -0.074279,-0.0916365,0.011545,-0.0042331,-0.0800089,-0.0226524,0.02399
 25,0.0648279,-0.0097884,0.0110177,-0.0050437,0.0221765,-0.0062674,0.04
 2872,0.0360643,-0.1539851,-0.0897634,0.0105009,-0.0378415,0.1556085,0.
 0665508,0.002157,-0.0105178,-0.0109796,0.0701681,0.0282054,-0.017983,0
 .0231455,-0.1076575,0.0292448,0.0192846,-0.0272693,0.0466388,-0.127102
 5,-0.1784941,0.1223406,0.0299492,-0.02469,-0.0347479,-0.0165302,-0.018
 492,-0.0143524,0.0704484,-0.0532687,0.2158226,0.114076,0.4226555,-0.06
 6698,-0.1147607,0.4266092,-0.188071,0.1154335,-0.012799,-0.0552053,-0.
 0055416,-0.0535715,-0.0672035,0.0215526,0.0062914,0.0257899,0.0420697,
 -0.0155149,0.0024202,-0.0303252,0.0179017,0.0329654,0.0455304,-0.02089
 09,0.0110663,-0.0492806,1.5447199,-0.8065672,-0.3348179,-0.6315838,0.2
 180735,0.1125043,0.663031,-0.3430072,-0.2448504,-1.2370561,0.5345168,0
 .2562507,0.2303194,-0.2219403,-0.0574765,-0.9572002,0.4715395,0.087042
 3\Polar=75.827657,-13.7787278,43.416242,-0.4035711,1.1411385,37.148620
 1\PG=C01 [X(C3H7O2)]\NImag=1\\0.58205184,-0.02051843,0.49008452,0.0092
 9549,0.02901174,0.56999010,-0.19871675,0.12422454,0.05136857,0.2121124
 3,0.12207443,-0.15054179,-0.04334286,-0.13408934,0.16547033,0.05142874
 ,-0.04398669,-0.06922041,-0.05718453,0.04564423,0.06951722,-0.23938700
 ,-0.06843593,-0.09911954,-0.01934003,-0.00806102,-0.01138726,0.2569558
 1,-0.06693394,-0.07336493,-0.03557212,0.01696254,0.00752449,0.01092393
 ,0.07613312,0.07957030,-0.09959046,-0.03675291,-0.10179992,0.00832073,
 0.00404821,0.00407518,0.10922994,0.03802291,0.10568048,-0.05465640,-0.
 00106839,0.03243348,-0.00219247,-0.00224245,0.02541813,0.00510018,0.00
 202016,-0.02881059,0.05275788,-0.00116203,-0.04951233,0.01000060,0.000
 69486,0.00129494,-0.02104483,0.00250231,-0.00019885,-0.01000962,0.0028
 1479,0.05386175,0.03255375,0.01128336,-0.30679960,0.00041963,-0.000003
 04,-0.00732645,0.00215074,0.00025536,-0.01328685,-0.03618660,-0.014226
 83,0.33301138,-0.08141825,-0.02026788,0.00571535,0.00682945,0.02222908
 ,-0.00799170,-0.00447546,-0.02717436,0.00989693,-0.00202989,-0.0046743
 3,0.00115765,0.49499496,-0.02101502,-0.17973575,0.03118765,-0.00582512
 ,-0.02088638,0.00692977,-0.00040727,-0.00948160,0.00369231,-0.00031467
 ,-0.00261887,0.00075887,-0.01052603,0.49000061,0.00551345,0.03061402,-
 0.09370501,-0.00286386,-0.00849440,0.00239113,-0.00211366,-0.01565915,
 0.00442665,0.00683872,0.03424571,-0.00847952,-0.00638566,0.00063976,0.
 55988154,-0.00135921,-0.00033736,0.00715071,0.00020824,0.00009879,-0.0
 0072959,-0.00007750,0.00014748,0.00024205,0.00046694,-0.00180974,0.000
 01986,-0.04743137,-0.00284957,0.02448739,0.05475224,-0.00354921,-0.001
 56957,0.03263579,0.00062185,0.00117065,-0.00035289,-0.00003342,0.00125
 942,-0.00057642,-0.00149267,-0.00629404,0.00188091,-0.00410417,-0.0510
 4415,0.01038864,0.00453591,0.05423649,0.00114022,0.00111708,-0.0072384
 3,-0.00036174,0.00006136,0.00041992,0.00036406,0.00017785,0.00047897,0
 .00029308,0.00157809,0.00121338,0.02496770,0.01268765,-0.29849556,-0.0
 2459547,-0.01332390,0.32668665,0.00673597,-0.00526838,-0.00187396,0.00
 059244,-0.00217436,0.00045140,0.00065952,0.00042842,-0.00020589,0.0001
 7149,0.00046179,-0.00036185,-0.18368920,0.11424735,0.04668975,-0.00278
 413,0.00230823,0.00203692,0.20520833,0.02408189,-0.02177568,-0.0073591
 5,-0.00237265,-0.00581996,0.00255208,-0.00017224,0.00123259,-0.0006945
 3,0.00003714,0.00145819,0.00034950,0.10392009,-0.12954809,-0.03520295,
 -0.00020791,0.00024384,-0.00055561,-0.11974909,0.14609383,-0.00740802,
 0.00712824,0.00207045,0.00025505,0.00195635,0.00035722,0.00007881,-0.0
 0078999,0.00009863,-0.00065863,-0.00029071,0.00041541,0.04052668,-0.03
 224478,-0.05697599,0.02660489,-0.01986454,-0.00915590,-0.04729285,0.03
 693062,0.06130858,-0.01158847,-0.00945568,-0.00166335,0.00096976,0.001
 77308,-0.00005763,0.00053869,-0.00072948,0.00019189,0.00079967,0.00133
 969,-0.00075909,-0.17098742,-0.05926237,-0.05904672,-0.00189850,0.0024
 0983,-0.00330801,-0.02850603,-0.00650661,-0.01333368,0.32084556,-0.031
 19361,-0.01539427,-0.01384631,-0.00004673,0.00169048,-0.00072205,-0.00
 133023,-0.00587909,0.00173064,0.00020387,0.00153833,-0.00078066,-0.058
 46172,-0.09904638,-0.01258972,0.00300229,0.00219126,0.00088342,0.01304
 433,0.00845169,0.00844599,0.19812918,0.44005976,0.00886194,0.00031726,
 0.00684245,-0.00018045,0.00060078,0.00019987,0.00105121,0.00369897,-0.
 00052278,0.00140099,0.00086745,0.00049714,-0.06208460,-0.01802237,-0.1
 1192489,-0.03186850,-0.01062479,-0.01494288,0.00367706,0.00489035,0.00
 266653,0.15732346,-0.17122159,0.51132370,-0.00410858,0.00052540,-0.004
 08498,0.00008890,-0.00019951,-0.00007454,-0.00014379,-0.00178478,0.000
 50309,-0.00001085,0.00028190,0.00011004,-0.00273572,-0.02472569,0.0105
 2145,0.00073528,0.00059490,-0.00061173,0.00112787,0.00113575,0.0004175
 6,-0.07639818,-0.09878799,0.02031108,0.07800421,-0.00228495,0.00052978
 ,-0.00092623,0.00014878,0.00031871,-0.00001365,-0.00008456,-0.00047287
 ,0.00026891,0.00011687,0.00008670,0.00006769,0.00046080,-0.00351720,0.
 00347400,0.00023302,0.00024321,0.00005089,-0.00100602,-0.00010289,0.00
 004753,-0.10622645,-0.27552700,0.09260942,0.11089746,0.28328049,-0.002
 52178,-0.00033194,-0.00059479,0.00008195,0.00019757,-0.00014757,-0.000
 32930,-0.00073058,0.00050099,-0.00026647,-0.00027251,0.00035976,-0.003
 69526,-0.01189550,0.00621845,0.00103230,-0.00003878,0.00091810,-0.0005
 9344,0.00005598,0.00036809,0.02012106,0.08782791,-0.07896418,-0.024611
 18,-0.09520839,0.07510384,0.00136111,0.00138639,-0.00001269,0.00001023
 ,-0.00019205,0.00005681,0.00007792,0.00024289,0.00030299,-0.00016637,-
 0.00045559,0.00086546,0.00094300,0.00551994,-0.02709902,-0.00453567,-0
 .00201018,-0.00112522,-0.00006957,0.00041431,0.00109990,-0.05863616,0.
 00572127,-0.07109456,0.00581409,-0.00378620,0.00909289,0.05655658,0.00
 110774,0.00122041,-0.00127674,0.00013493,-0.00015377,-0.00007847,0.000
 17534,-0.00000860,0.00017166,-0.00009613,0.00029644,0.00032675,-0.0030
 1559,0.00522137,-0.00803950,-0.00200916,0.00008840,-0.00220577,-0.0007
 0971,-0.00005819,-0.00094447,0.00533135,-0.06745441,0.08234637,0.00549
 589,-0.00175630,0.02521372,-0.00814730,0.06442181,0.00091681,0.0008247
 8,0.00078378,-0.00004639,-0.00034283,-0.00005480,0.00014116,-0.0000415
 9,0.00028634,-0.00039015,-0.00075369,0.00028263,0.00012012,0.00291506,
 -0.00556673,-0.00213674,-0.00006913,-0.00015704,-0.00035431,-0.0000670
 4,-0.00082271,-0.07589869,0.08643886,-0.30365699,-0.00291575,-0.000007
 36,-0.00324709,0.08013329,-0.08808320,0.31522676,0.00146715,-0.0032311
 4,0.00219317,-0.00043786,0.00247952,0.00011638,0.00027857,0.00177959,-
 0.00011707,-0.00041797,0.00005284,-0.00014840,-0.00272188,-0.00361184,
 -0.00061979,0.00244081,0.00218382,0.00206858,0.00493227,0.00280558,0.0
 0190587,0.05163359,-0.04865631,-0.03070042,-0.00096708,-0.00043607,0.0
 0121713,-0.00266175,0.00345539,-0.00040348,0.27685891,-0.00051996,0.00
 065869,-0.00082490,-0.00045015,-0.00053592,0.00019652,-0.00031923,-0.0
 0041206,0.00010471,0.00004324,0.00005539,0.00013325,-0.00184099,0.0042
 8684,0.00244198,-0.00085190,-0.00068959,-0.00035130,-0.00310646,-0.001
 21562,-0.00098815,-0.03502315,0.01114647,0.00786475,0.00648095,-0.0027
 7539,-0.00469259,0.00275130,-0.00297658,-0.00139876,-0.03537054,0.0152
 7889,0.00019228,-0.00086525,0.00081145,0.00039737,0.00110499,-0.000193
 56,0.00005564,0.00068393,0.00002319,-0.00022438,-0.00017682,-0.0000599
 3,-0.00094958,0.00006376,0.00107341,0.00022177,0.00171701,0.00177992,-
 0.00017745,0.00117030,0.00119084,-0.00732895,-0.00608301,-0.03438941,0
 .00088868,-0.00129258,-0.00086765,0.01049690,-0.00919399,-0.00573896,0
 .27607003,-0.03841514,0.29114290,-0.00038139,0.00244686,-0.00140226,-0
 .00012436,-0.00169616,-0.00004621,-0.00018691,-0.00109164,0.00003639,0
 .00017780,-0.00004650,0.00017883,-0.00727823,0.00877031,0.00407796,-0.
 00051712,-0.00146488,-0.00086839,-0.00437896,-0.00338627,-0.00219560,-
 0.02677250,0.01837566,0.00330279,-0.00140614,0.00196731,0.00047210,0.0
 0130659,-0.00172276,0.00083413,-0.33040474,0.06820688,-0.27964230,0.36
 996597,-0.00008690,-0.00059909,0.00031253,-0.00000351,0.00046824,-0.00
 004795,0.00003312,0.00023121,-0.00000587,-0.00002176,0.00003236,-0.000
 04514,0.00345510,-0.00363039,-0.00181839,0.00004815,0.00016409,-0.0001
 1977,0.00152391,0.00104032,0.00061393,0.00822061,-0.00177683,0.0066734
 2,0.00008572,-0.00030722,-0.00012488,-0.00144478,0.00115942,0.00058490
 ,0.07854916,-0.02282111,0.05128680,-0.09035881,0.02603901,-0.00038241,
 0.00164031,-0.00114008,-0.00020635,-0.00143035,-0.00001775,-0.00012180
 ,-0.00096952,0.00003913,0.00015242,0.00008317,0.00017265,-0.00127762,0
 .00328782,0.00115652,-0.00042869,-0.00177189,-0.00150713,-0.00199537,-
 0.00206955,-0.00152115,-0.01624029,0.01991654,0.02287143,-0.00045371,0
 .00092976,0.00035203,-0.00271674,0.00176365,0.00266481,-0.25158200,0.0
 3592964,-0.25477221,0.27525256,-0.05730958,0.23170176\\0.00001216,0.00
 001648,-0.00000200,0.00000007,-0.00002539,-0.00000418,-0.00000011,-0.0
 0000058,-0.00000124,0.00000049,-0.00000475,0.00000037,0.00000269,-0.00
 000370,0.00000087,0.00000154,0.00000285,-0.00000011,-0.00000135,-0.000
 00273,-0.00000007,-0.01272866,0.00962597,0.00722974,0.00000722,0.00000
 187,0.00001484,0.00001376,-0.00000551,0.00000218,0.01271067,-0.0096205
 7,-0.00726055,-0.00001847,0.00001607,0.00002015\\\@


 Until you make peace with who you are,
 you'll never be content with what you have.
                           -- Doris Mortman
 Job cpu time:  0 days  0 hours  8 minutes 27.6 seconds.
 File lengths (MBytes):  RWF=     29 Int=      0 D2E=      0 Chk=      3 Scr=      1
 Normal termination of Gaussian 09 at Wed Apr  1 01:08:12 2015.
