 Entering Gaussian System, Link 0=/share/apps/g09/g09
 Input=C3H7O2_62_b3631gd_326.gjf
 Output=C3H7O2_62_b3631gd_326.log
 Initial command:
 /share/apps/g09/l1.exe /state/partition1/Gau-15363.inp -scrdir=/state/partition1/
 Entering Link 1 = /share/apps/g09/l1.exe PID=     15364.
  
 Copyright (c) 1988,1990,1992,1993,1995,1998,2003,2009, Gaussian, Inc.
                  All Rights Reserved.
  
 This is part of the Gaussian(R) 09 program.  It is based on
 the Gaussian(R) 03 system (copyright 2003, Gaussian, Inc.),
 the Gaussian(R) 98 system (copyright 1998, Gaussian, Inc.),
 the Gaussian(R) 94 system (copyright 1995, Gaussian, Inc.),
 the Gaussian 92(TM) system (copyright 1992, Gaussian, Inc.),
 the Gaussian 90(TM) system (copyright 1990, Gaussian, Inc.),
 the Gaussian 88(TM) system (copyright 1988, Gaussian, Inc.),
 the Gaussian 86(TM) system (copyright 1986, Carnegie Mellon
 University), and the Gaussian 82(TM) system (copyright 1983,
 Carnegie Mellon University). Gaussian is a federally registered
 trademark of Gaussian, Inc.
  
 This software contains proprietary and confidential information,
 including trade secrets, belonging to Gaussian, Inc.
  
 This software is provided under written license and may be
 used, copied, transmitted, or stored only in accord with that
 written license.
  
 The following legend is applicable only to US Government
 contracts under FAR:
  
                    RESTRICTED RIGHTS LEGEND
  
 Use, reproduction and disclosure by the US Government is
 subject to restrictions as set forth in subparagraphs (a)
 and (c) of the Commercial Computer Software - Restricted
 Rights clause in FAR 52.227-19.
  
 Gaussian, Inc.
 340 Quinnipiac St., Bldg. 40, Wallingford CT 06492
  
  
 ---------------------------------------------------------------
 Warning -- This program may not be used in any manner that
 competes with the business of Gaussian, Inc. or will provide
 assistance to any competitor of Gaussian, Inc.  The licensee
 of this program is prohibited from giving any competitor of
 Gaussian, Inc. access to this program.  By using this program,
 the user acknowledges that Gaussian, Inc. is engaged in the
 business of creating and licensing software in the field of
 computational chemistry and represents and warrants to the
 licensee that it is not a competitor of Gaussian, Inc. and that
 it will not use this program in any manner prohibited above.
 ---------------------------------------------------------------
  

 Cite this work as:
 Gaussian 09, Revision A.01,
 M. J. Frisch, G. W. Trucks, H. B. Schlegel, G. E. Scuseria, 
 M. A. Robb, J. R. Cheeseman, G. Scalmani, V. Barone, B. Mennucci, 
 G. A. Petersson, H. Nakatsuji, M. Caricato, X. Li, H. P. Hratchian, 
 A. F. Izmaylov, J. Bloino, G. Zheng, J. L. Sonnenberg, M. Hada, 
 M. Ehara, K. Toyota, R. Fukuda, J. Hasegawa, M. Ishida, T. Nakajima, 
 Y. Honda, O. Kitao, H. Nakai, T. Vreven, J. A. Montgomery, Jr., 
 J. E. Peralta, F. Ogliaro, M. Bearpark, J. J. Heyd, E. Brothers, 
 K. N. Kudin, V. N. Staroverov, R. Kobayashi, J. Normand, 
 K. Raghavachari, A. Rendell, J. C. Burant, S. S. Iyengar, J. Tomasi, 
 M. Cossi, N. Rega, J. M. Millam, M. Klene, J. E. Knox, J. B. Cross, 
 V. Bakken, C. Adamo, J. Jaramillo, R. Gomperts, R. E. Stratmann, 
 O. Yazyev, A. J. Austin, R. Cammi, C. Pomelli, J. W. Ochterski, 
 R. L. Martin, K. Morokuma, V. G. Zakrzewski, G. A. Voth, 
 P. Salvador, J. J. Dannenberg, S. Dapprich, A. D. Daniels, 
 O. Farkas, J. B. Foresman, J. V. Ortiz, J. Cioslowski, 
 and D. J. Fox, Gaussian, Inc., Wallingford CT, 2009.
 
 ******************************************
 Gaussian 09:  EM64L-G09RevA.01  8-May-2009
                 1-Apr-2015 
 ******************************************
 %mem=28GB
 %nprocshared=12
 Will use up to   12 processors via shared memory.
 %chk=C3H7O2_62_b3631gd_326.chk
 ----------------------------------------
 #p ub3lyp/6-31g(d) opt=modredundant freq
 ----------------------------------------
 1/14=-1,18=120,19=15,26=3,38=1/1,3;
 2/9=110,12=2,17=6,18=5,40=1/2;
 3/5=1,6=6,7=1,11=2,16=1,25=1,30=1,71=1,74=-5,116=2/1,2,3;
 4//1;
 5/5=2,38=5/2;
 6/7=2,8=2,9=2,10=2,28=1/1;
 7//1,2,3,16;
 1/14=-1,18=20,19=15/3(2);
 2/9=110/2;
 99//99;
 2/9=110/2;
 3/5=1,6=6,7=1,11=2,16=1,25=1,30=1,71=1,74=-5,116=2/1,2,3;
 4/5=5,16=3/1;
 5/5=2,38=5/2;
 7//1,2,3,16;
 1/14=-1,18=20,19=15/3(-5);
 2/9=110/2;
 6/7=2,8=2,9=2,10=2,19=2,28=1/1;
 99/9=1/99;
 Leave Link    1 at Wed Apr  1 00:25:04 2015, MaxMem= 3758096384 cpu:       0.6
 (Enter /share/apps/g09/l101.exe)
 ---------------------------------------------------
 C3H7O2_62_b3631gd using cbs-qb3 to calculate energy
 ---------------------------------------------------
 Symbolic Z-matrix:
 Charge =  0 Multiplicity = 2
 C                    -1.6536   -1.16824   0.17361 
 H                    -0.64087  -1.51763  -0.05424 
 H                    -2.36669  -1.8545   -0.29654 
 H                    -1.79274  -1.23285   1.25961 
 C                    -1.85766   0.27092  -0.32159 
 H                    -1.74551   0.30999  -1.4144 
 H                    -2.90854   0.56345  -0.13267 
 C                    -0.93795   1.25706   0.31461 
 H                    -0.70951   2.20288  -0.16675 
 H                    -0.6243    1.13285   1.34749 
 O                     1.93221  -0.03566  -0.53969 
 O                     2.75322  -0.18467   0.3469 
 
 NAtoms=     12 NQM=     12 NQMF=      0 NMic=      0 NMicF=      0 NTot=     12.
 The following ModRedundant input section has been read:
 B    8   11 F                                                                 
                    Isotopes and Nuclear Properties:
 (Nuclear quadrupole moments (NQMom) in fm**2, nuclear magnetic moments (NMagM)
  in nuclear magnetons)

  Atom         1           2           3           4           5           6           7           8           9          10
 IAtWgt=          12           1           1           1          12           1           1          12           1           1
 AtmWgt=  12.0000000   1.0078250   1.0078250   1.0078250  12.0000000   1.0078250   1.0078250  12.0000000   1.0078250   1.0078250
 NucSpn=           0           1           1           1           0           1           1           0           1           1
 AtZEff=   0.0000000   0.0000000   0.0000000   0.0000000   0.0000000   0.0000000   0.0000000   0.0000000   0.0000000   0.0000000
 NQMom=    0.0000000   0.0000000   0.0000000   0.0000000   0.0000000   0.0000000   0.0000000   0.0000000   0.0000000   0.0000000
 NMagM=    0.0000000   2.7928460   2.7928460   2.7928460   0.0000000   2.7928460   2.7928460   0.0000000   2.7928460   2.7928460

  Atom        11          12
 IAtWgt=          16          16
 AtmWgt=  15.9949146  15.9949146
 NucSpn=           0           0
 AtZEff=   0.0000000   0.0000000
 NQMom=    0.0000000   0.0000000
 NMagM=    0.0000000   0.0000000
 Leave Link  101 at Wed Apr  1 00:25:04 2015, MaxMem= 3758096384 cpu:       0.7
 (Enter /share/apps/g09/l103.exe)

 GradGradGradGradGradGradGradGradGradGradGradGradGradGradGradGradGradGrad
 Berny optimization.
 Initialization pass.
                           ----------------------------
                           !    Initial Parameters    !
                           ! (Angstroms and Degrees)  !
 --------------------------                            --------------------------
 ! Name  Definition              Value          Derivative Info.                !
 --------------------------------------------------------------------------------
 ! R1    R(1,2)                  1.0953         estimate D2E/DX2                !
 ! R2    R(1,3)                  1.0957         estimate D2E/DX2                !
 ! R3    R(1,4)                  1.0968         estimate D2E/DX2                !
 ! R4    R(1,5)                  1.5356         estimate D2E/DX2                !
 ! R5    R(1,11)                 3.8275         estimate D2E/DX2                !
 ! R6    R(2,11)                 3.0088         estimate D2E/DX2                !
 ! R7    R(2,12)                 3.6684         estimate D2E/DX2                !
 ! R8    R(5,6)                  1.0992         estimate D2E/DX2                !
 ! R9    R(5,7)                  1.1071         estimate D2E/DX2                !
 ! R10   R(5,8)                  1.491          estimate D2E/DX2                !
 ! R11   R(5,11)                 3.8085         estimate D2E/DX2                !
 ! R12   R(6,11)                 3.7961         estimate D2E/DX2                !
 ! R13   R(8,9)                  1.0856         estimate D2E/DX2                !
 ! R14   R(8,10)                 1.0866         estimate D2E/DX2                !
 ! R15   R(8,11)                 3.2617         Frozen                          !
 ! R16   R(9,11)                 3.4826         estimate D2E/DX2                !
 ! R17   R(10,11)                3.3856         estimate D2E/DX2                !
 ! R18   R(10,12)                3.7609         estimate D2E/DX2                !
 ! R19   R(11,12)                1.2175         estimate D2E/DX2                !
 ! A1    A(2,1,3)              108.2229         estimate D2E/DX2                !
 ! A2    A(2,1,4)              107.728          estimate D2E/DX2                !
 ! A3    A(2,1,5)              110.7787         estimate D2E/DX2                !
 ! A4    A(3,1,4)              107.783          estimate D2E/DX2                !
 ! A5    A(3,1,5)              111.2314         estimate D2E/DX2                !
 ! A6    A(3,1,11)             135.6519         estimate D2E/DX2                !
 ! A7    A(4,1,5)              110.957          estimate D2E/DX2                !
 ! A8    A(4,1,11)             108.7125         estimate D2E/DX2                !
 ! A9    A(1,2,12)             135.7931         estimate D2E/DX2                !
 ! A10   A(1,5,6)              109.8981         estimate D2E/DX2                !
 ! A11   A(1,5,7)              108.5879         estimate D2E/DX2                !
 ! A12   A(1,5,8)              113.5959         estimate D2E/DX2                !
 ! A13   A(6,5,7)              104.8984         estimate D2E/DX2                !
 ! A14   A(6,5,8)              109.7399         estimate D2E/DX2                !
 ! A15   A(7,5,8)              109.7522         estimate D2E/DX2                !
 ! A16   A(7,5,11)             167.3275         estimate D2E/DX2                !
 ! A17   A(5,8,9)              121.121          estimate D2E/DX2                !
 ! A18   A(5,8,10)             120.5344         estimate D2E/DX2                !
 ! A19   A(9,8,10)             117.4104         estimate D2E/DX2                !
 ! A20   A(8,10,12)             92.6581         estimate D2E/DX2                !
 ! A21   A(1,11,6)              33.0952         estimate D2E/DX2                !
 ! A22   A(1,11,8)              40.8934         estimate D2E/DX2                !
 ! A23   A(1,11,9)              57.2892         estimate D2E/DX2                !
 ! A24   A(1,11,10)             44.832          estimate D2E/DX2                !
 ! A25   A(1,11,12)            117.3768         estimate D2E/DX2                !
 ! A26   A(2,11,5)              34.8548         estimate D2E/DX2                !
 ! A27   A(2,11,6)              41.7115         estimate D2E/DX2                !
 ! A28   A(2,11,8)              53.1603         estimate D2E/DX2                !
 ! A29   A(2,11,9)              69.5508         estimate D2E/DX2                !
 ! A30   A(2,11,10)             55.5492         estimate D2E/DX2                !
 ! A31   A(5,11,9)              35.6394         estimate D2E/DX2                !
 ! A32   A(5,11,10)             35.7953         estimate D2E/DX2                !
 ! A33   A(5,11,12)            129.7319         estimate D2E/DX2                !
 ! A34   A(6,11,8)              34.0802         estimate D2E/DX2                !
 ! A35   A(6,11,9)              39.7593         estimate D2E/DX2                !
 ! A36   A(6,11,10)             50.6137         estimate D2E/DX2                !
 ! A37   A(6,11,12)            146.3314         estimate D2E/DX2                !
 ! A38   A(8,11,12)            116.8188         estimate D2E/DX2                !
 ! A39   A(9,11,10)             31.3168         estimate D2E/DX2                !
 ! A40   A(9,11,12)            120.8108         estimate D2E/DX2                !
 ! A41   A(2,12,10)             47.5843         estimate D2E/DX2                !
 ! D1    D(3,1,2,12)           170.1384         estimate D2E/DX2                !
 ! D2    D(4,1,2,12)           -73.5779         estimate D2E/DX2                !
 ! D3    D(5,1,2,12)            47.9503         estimate D2E/DX2                !
 ! D4    D(2,1,5,6)             62.1604         estimate D2E/DX2                !
 ! D5    D(2,1,5,7)            176.3782         estimate D2E/DX2                !
 ! D6    D(2,1,5,8)            -61.2114         estimate D2E/DX2                !
 ! D7    D(3,1,5,6)            -58.2531         estimate D2E/DX2                !
 ! D8    D(3,1,5,7)             55.9646         estimate D2E/DX2                !
 ! D9    D(3,1,5,8)            178.375          estimate D2E/DX2                !
 ! D10   D(4,1,5,6)           -178.2306         estimate D2E/DX2                !
 ! D11   D(4,1,5,7)            -64.0129         estimate D2E/DX2                !
 ! D12   D(4,1,5,8)             58.3975         estimate D2E/DX2                !
 ! D13   D(3,1,11,6)            78.9293         estimate D2E/DX2                !
 ! D14   D(3,1,11,8)           135.8765         estimate D2E/DX2                !
 ! D15   D(3,1,11,9)           125.4711         estimate D2E/DX2                !
 ! D16   D(3,1,11,10)          162.902          estimate D2E/DX2                !
 ! D17   D(3,1,11,12)         -123.8615         estimate D2E/DX2                !
 ! D18   D(4,1,11,6)          -137.187          estimate D2E/DX2                !
 ! D19   D(4,1,11,8)           -80.2398         estimate D2E/DX2                !
 ! D20   D(4,1,11,9)           -90.6452         estimate D2E/DX2                !
 ! D21   D(4,1,11,10)          -53.2143         estimate D2E/DX2                !
 ! D22   D(4,1,11,12)           20.0222         estimate D2E/DX2                !
 ! D23   D(1,2,12,10)            3.1744         estimate D2E/DX2                !
 ! D24   D(1,5,8,9)            157.4826         estimate D2E/DX2                !
 ! D25   D(1,5,8,10)           -33.8645         estimate D2E/DX2                !
 ! D26   D(6,5,8,9)             34.0243         estimate D2E/DX2                !
 ! D27   D(6,5,8,10)          -157.3228         estimate D2E/DX2                !
 ! D28   D(7,5,8,9)            -80.7525         estimate D2E/DX2                !
 ! D29   D(7,5,8,10)            87.9004         estimate D2E/DX2                !
 ! D30   D(7,5,11,2)           136.8341         estimate D2E/DX2                !
 ! D31   D(7,5,11,9)           -25.6303         estimate D2E/DX2                !
 ! D32   D(7,5,11,10)           29.4441         estimate D2E/DX2                !
 ! D33   D(7,5,11,12)           63.4401         estimate D2E/DX2                !
 ! D34   D(5,8,10,12)          102.4287         estimate D2E/DX2                !
 ! D35   D(9,8,10,12)          -88.5087         estimate D2E/DX2                !
 ! D36   D(8,10,12,2)          -66.1499         estimate D2E/DX2                !
 --------------------------------------------------------------------------------
 Trust Radius=3.00D-01 FncErr=1.00D-07 GrdErr=1.00D-06
 Number of steps in this run= 100 maximum allowed number of steps= 100.
 GradGradGradGradGradGradGradGradGradGradGradGradGradGradGradGradGradGrad

 Leave Link  103 at Wed Apr  1 00:25:04 2015, MaxMem= 3758096384 cpu:       0.1
 (Enter /share/apps/g09/l202.exe)
                          Input orientation:                          
 ---------------------------------------------------------------------
 Center     Atomic      Atomic             Coordinates (Angstroms)
 Number     Number       Type             X           Y           Z
 ---------------------------------------------------------------------
      1          6           0       -1.653598   -1.168239    0.173613
      2          1           0       -0.640869   -1.517632   -0.054236
      3          1           0       -2.366693   -1.854499   -0.296538
      4          1           0       -1.792744   -1.232852    1.259614
      5          6           0       -1.857664    0.270915   -0.321591
      6          1           0       -1.745510    0.309985   -1.414395
      7          1           0       -2.908542    0.563447   -0.132673
      8          6           0       -0.937945    1.257059    0.314611
      9          1           0       -0.709508    2.202884   -0.166753
     10          1           0       -0.624298    1.132848    1.347485
     11          8           0        1.932209   -0.035658   -0.539685
     12          8           0        2.753216   -0.184666    0.346897
 ---------------------------------------------------------------------
                    Distance matrix (angstroms):
                    1          2          3          4          5
     1  C    0.000000
     2  H    1.095267   0.000000
     3  H    1.095673   1.775009   0.000000
     4  H    1.096784   1.770344   1.771291   0.000000
     5  C    1.535589   2.179672   2.185663   2.183057   0.000000
     6  H    2.171489   2.531886   2.514053   3.087540   1.099239
     7  H    2.160424   3.078861   2.483327   2.531829   1.107073
     8  C    2.532609   2.814820   3.478019   2.797029   1.491012
     9  H    3.517332   3.722850   4.384685   3.874559   2.252719
    10  H    2.780726   2.998356   3.829229   2.639986   2.247206
    11  O    3.827472   3.008760   4.674170   4.306510   3.808502
    12  O    4.518568   3.668449   5.423635   4.753683   4.681308
                    6          7          8          9         10
     6  H    0.000000
     7  H    1.749199   0.000000
     8  C    2.130392   2.136449   0.000000
     9  H    2.492584   2.743112   1.085578   0.000000
    10  H    3.092281   2.780801   1.086569   1.856113   0.000000
    11  O    3.796077   4.894635   3.261706   3.482645   3.385638
    12  O    4.856477   5.731070   3.962863   4.237297   3.760933
                   11         12
    11  O    0.000000
    12  O    1.217491   0.000000
 Stoichiometry    C3H7O2(2)
 Framework group  C1[X(C3H7O2)]
 Deg. of freedom    30
 Full point group                 C1      NOp   1
 Largest Abelian subgroup         C1      NOp   1
 Largest concise Abelian subgroup C1      NOp   1
                         Standard orientation:                         
 ---------------------------------------------------------------------
 Center     Atomic      Atomic             Coordinates (Angstroms)
 Number     Number       Type             X           Y           Z
 ---------------------------------------------------------------------
      1          6           0       -1.653598   -1.168239    0.173613
      2          1           0       -0.640869   -1.517632   -0.054236
      3          1           0       -2.366693   -1.854499   -0.296538
      4          1           0       -1.792744   -1.232852    1.259614
      5          6           0       -1.857664    0.270915   -0.321591
      6          1           0       -1.745510    0.309985   -1.414395
      7          1           0       -2.908542    0.563447   -0.132673
      8          6           0       -0.937945    1.257059    0.314611
      9          1           0       -0.709508    2.202884   -0.166753
     10          1           0       -0.624298    1.132848    1.347485
     11          8           0        1.932209   -0.035658   -0.539685
     12          8           0        2.753216   -0.184666    0.346897
 ---------------------------------------------------------------------
 Rotational constants (GHZ):      7.7023519      1.6789521      1.5008742
 Leave Link  202 at Wed Apr  1 00:25:04 2015, MaxMem= 3758096384 cpu:       0.1
 (Enter /share/apps/g09/l301.exe)
 Standard basis: 6-31G(d) (6D, 7F)
 Ernie: Thresh=  0.10000D-02 Tol=  0.10000D-05 Strict=F.
 There are    89 symmetry adapted basis functions of A   symmetry.
 Integral buffers will be    131072 words long.
 Raffenetti 2 integral format.
 Two-electron integral symmetry is turned on.
    89 basis functions,   168 primitive gaussians,    89 cartesian basis functions
    21 alpha electrons       20 beta electrons
       nuclear repulsion energy       156.3336364699 Hartrees.
 IExCor=  402 DFT=T Ex+Corr=B3LYP ExCW=0 ScaHFX=  0.200000
 ScaDFX=  0.800000  0.720000  1.000000  0.810000 ScalE2=  1.000000  1.000000
 IRadAn=      0 IRanWt=     -1 IRanGd=            0 ICorTp=0
 NAtoms=   12 NActive=   12 NUniq=   12 SFac= 7.50D-01 NAtFMM=   80 NAOKFM=F Big=F
 Leave Link  301 at Wed Apr  1 00:25:04 2015, MaxMem= 3758096384 cpu:       0.4
 (Enter /share/apps/g09/l302.exe)
 NPDir=0 NMtPBC=     1 NCelOv=     1 NCel=       1 NClECP=     1 NCelD=      1
         NCelK=      1 NCelE2=     1 NClLst=     1 CellRange=     0.0.
 One-electron integrals computed using PRISM.
 NBasis=    89 RedAO= T  NBF=    89
 NBsUse=    89 1.00D-06 NBFU=    89
 Precomputing XC quadrature grid using
 IXCGrd= 2 IRadAn=           0 IRanWt=          -1 IRanGd=           0 AccXCQ= 1.00D-10.
 NRdTot=     744 NPtTot=       94486 NUsed=       99863 NTot=       99895
 NSgBfM=    89    89    89    89    89 NAtAll=    12    12.
 Leave Link  302 at Wed Apr  1 00:25:05 2015, MaxMem= 3758096384 cpu:       5.1
 (Enter /share/apps/g09/l303.exe)
 DipDrv:  MaxL=1.
 Leave Link  303 at Wed Apr  1 00:25:05 2015, MaxMem= 3758096384 cpu:       0.3
 (Enter /share/apps/g09/l401.exe)
 Harris functional with IExCor=  402 diagonalized for initial guess.
 ExpMin= 1.61D-01 ExpMax= 5.48D+03 ExpMxC= 8.25D+02 IAcc=1 IRadAn=         1 AccDes= 0.00D+00
 HarFok:  IExCor=  402 AccDes= 0.00D+00 IRadAn=         1 IDoV= 1
 ScaDFX=  1.000000  1.000000  1.000000  1.000000
 FoFCou: FMM=F IPFlag=           0 FMFlag=      100000 FMFlg1=           0
         NFxFlg=           0 DoJE=T BraDBF=F KetDBF=T FulRan=T
         Omega=  0.000000  0.000000  1.000000  0.000000  0.000000 ICntrl=     500 IOpCl=  0
         NMat0=    1 NMatS0=    1 NMatT0=    0 NMatD0=    1 NMtDS0=    0 NMtDT0=    0
         I1Cent=           4 NGrid=           0.
 Petite list used in FoFCou.
 Harris En= -268.810564571499    
 Initial guess orbital symmetries:
 Alpha Orbitals:
       Occupied  (A) (A) (A) (A) (A) (A) (A) (A) (A) (A) (A) (A)
                 (A) (A) (A) (A) (A) (A) (A) (A) (A)
       Virtual   (A) (A) (A) (A) (A) (A) (A) (A) (A) (A) (A) (A)
                 (A) (A) (A) (A) (A) (A) (A) (A) (A) (A) (A) (A)
                 (A) (A) (A) (A) (A) (A) (A) (A) (A) (A) (A) (A)
                 (A) (A) (A) (A) (A) (A) (A) (A) (A) (A) (A) (A)
                 (A) (A) (A) (A) (A) (A) (A) (A) (A) (A) (A) (A)
                 (A) (A) (A) (A) (A) (A) (A) (A)
 Beta  Orbitals:
       Occupied  (A) (A) (A) (A) (A) (A) (A) (A) (A) (A) (A) (A)
                 (A) (A) (A) (A) (A) (A) (A) (A)
       Virtual   (A) (A) (A) (A) (A) (A) (A) (A) (A) (A) (A) (A)
                 (A) (A) (A) (A) (A) (A) (A) (A) (A) (A) (A) (A)
                 (A) (A) (A) (A) (A) (A) (A) (A) (A) (A) (A) (A)
                 (A) (A) (A) (A) (A) (A) (A) (A) (A) (A) (A) (A)
                 (A) (A) (A) (A) (A) (A) (A) (A) (A) (A) (A) (A)
                 (A) (A) (A) (A) (A) (A) (A) (A) (A)
 The electronic state of the initial guess is 2-A.
 Initial guess <Sx>= 0.0000 <Sy>= 0.0000 <Sz>= 0.5000 <S**2>= 0.7500 S= 0.5000
 Leave Link  401 at Wed Apr  1 00:25:05 2015, MaxMem= 3758096384 cpu:       3.1
 (Enter /share/apps/g09/l502.exe)
 UHF open shell SCF:
 Requested convergence on RMS density matrix=1.00D-08 within 128 cycles.
 Requested convergence on MAX density matrix=1.00D-06.
 Requested convergence on             energy=1.00D-06.
 No special actions if energy rises.
 Using DIIS extrapolation, IDIIS=  1040.
 Integral symmetry usage will be decided dynamically.
        99742 words used for storage of precomputed grid.
 Keep R1 and R2 ints in memory in canonical form, NReq=17096935.
 IEnd=      143400 IEndB=      143400 NGot=  3758096384 MDV=  3741933577
 LenX=  3741933577 LenY=  3741925215
 Symmetry not used in FoFDir.
 MinBra= 0 MaxBra= 2 Meth= 1.
 IRaf=       0 NMat=   1 IRICut=       1 DoRegI=T DoRafI=F ISym2E= 0 JSym2E=0.
 Integral accuracy reduced to 1.0D-05 until final iterations.

 Cycle   1  Pass 0  IDiag  1:
 E= -268.089616096538    
 DIIS: error= 7.48D-02 at cycle   1 NSaved=   1.
 NSaved= 1 IEnMin= 1 EnMin= -268.089616096538     IErMin= 1 ErrMin= 7.48D-02
 ErrMax= 7.48D-02 EMaxC= 1.00D-01 BMatC= 1.49D+00 BMatP= 1.49D+00
 IDIUse=3 WtCom= 2.52D-01 WtEn= 7.48D-01
 Coeff-Com:  0.100D+01
 Coeff-En:   0.100D+01
 Coeff:      0.100D+01
 Gap=     0.158 Goal=   None    Shift=    0.000
 Gap=    -0.723 Goal=   None    Shift=    0.000
 GapD=   -0.723 DampG=0.250 DampE=0.500 DampFc=0.2500 IDamp=-1.
 Damping current iteration by 2.50D-01
 RMSDP=3.70D-02 MaxDP=5.15D-01              OVMax= 9.97D-01

 Cycle   2  Pass 0  IDiag  1:
 E= -268.116224402992     Delta-E=       -0.026608306454 Rises=F Damp=T
 DIIS: error= 3.18D-02 at cycle   2 NSaved=   2.
 NSaved= 2 IEnMin= 2 EnMin= -268.116224402992     IErMin= 2 ErrMin= 3.18D-02
 ErrMax= 3.18D-02 EMaxC= 1.00D-01 BMatC= 2.45D-01 BMatP= 1.49D+00
 IDIUse=3 WtCom= 6.82D-01 WtEn= 3.18D-01
 Coeff-Com:  0.157D+00 0.843D+00
 Coeff-En:   0.482D+00 0.518D+00
 Coeff:      0.261D+00 0.739D+00
 Gap=    -0.004 Goal=   None    Shift=    0.000
 Gap=     0.063 Goal=   None    Shift=    0.000
 RMSDP=1.27D-02 MaxDP=2.01D-01 DE=-2.66D-02 OVMax= 9.63D-01

 Cycle   3  Pass 0  IDiag  1:
 E= -268.441245905808     Delta-E=       -0.325021502817 Rises=F Damp=F
 DIIS: error= 4.57D-02 at cycle   3 NSaved=   3.
 NSaved= 3 IEnMin= 3 EnMin= -268.441245905808     IErMin= 2 ErrMin= 3.18D-02
 ErrMax= 4.57D-02 EMaxC= 1.00D-01 BMatC= 6.42D-01 BMatP= 2.45D-01
 IDIUse=2 WtCom= 0.00D+00 WtEn= 1.00D+00
 Coeff-En:   0.384D+00 0.000D+00 0.616D+00
 Coeff:      0.384D+00 0.000D+00 0.616D+00
 Gap=     0.012 Goal=   None    Shift=    0.000
 Gap=     0.091 Goal=   None    Shift=    0.000
 RMSDP=9.44D-03 MaxDP=2.00D-01 DE=-3.25D-01 OVMax= 7.56D-01

 Cycle   4  Pass 0  IDiag  1:
 E= -268.646588563942     Delta-E=       -0.205342658133 Rises=F Damp=F
 DIIS: error= 7.43D-02 at cycle   4 NSaved=   4.
 NSaved= 4 IEnMin= 4 EnMin= -268.646588563942     IErMin= 2 ErrMin= 3.18D-02
 ErrMax= 7.43D-02 EMaxC= 1.00D-01 BMatC= 2.98D-01 BMatP= 2.45D-01
 IDIUse=2 WtCom= 0.00D+00 WtEn= 1.00D+00
 Coeff-En:   0.000D+00 0.000D+00 0.331D+00 0.669D+00
 Coeff:      0.000D+00 0.000D+00 0.331D+00 0.669D+00
 Gap=     0.041 Goal=   None    Shift=    0.000
 Gap=     0.025 Goal=   None    Shift=    0.000
 RMSDP=6.83D-03 MaxDP=1.30D-01 DE=-2.05D-01 OVMax= 5.44D-01

 Cycle   5  Pass 0  IDiag  1:
 E= -268.654805240959     Delta-E=       -0.008216677017 Rises=F Damp=F
 DIIS: error= 6.55D-02 at cycle   5 NSaved=   5.
 NSaved= 5 IEnMin= 5 EnMin= -268.654805240959     IErMin= 2 ErrMin= 3.18D-02
 ErrMax= 6.55D-02 EMaxC= 1.00D-01 BMatC= 2.56D-01 BMatP= 2.45D-01
 IDIUse=3 WtCom= 3.45D-01 WtEn= 6.55D-01
 Coeff-Com:  0.379D-01-0.636D-01 0.144D+00 0.462D+00 0.419D+00
 Coeff-En:   0.000D+00 0.000D+00 0.000D+00 0.488D+00 0.512D+00
 Coeff:      0.131D-01-0.220D-01 0.498D-01 0.479D+00 0.480D+00
 Gap=     0.065 Goal=   None    Shift=    0.000
 Gap=     0.024 Goal=   None    Shift=    0.000
 RMSDP=5.28D-03 MaxDP=1.23D-01 DE=-8.22D-03 OVMax= 5.50D-01

 Cycle   6  Pass 0  IDiag  1:
 E= -268.768954425345     Delta-E=       -0.114149184386 Rises=F Damp=F
 DIIS: error= 2.19D-02 at cycle   6 NSaved=   6.
 NSaved= 6 IEnMin= 6 EnMin= -268.768954425345     IErMin= 6 ErrMin= 2.19D-02
 ErrMax= 2.19D-02 EMaxC= 1.00D-01 BMatC= 2.73D-02 BMatP= 2.45D-01
 IDIUse=3 WtCom= 7.81D-01 WtEn= 2.19D-01
 Coeff-Com: -0.910D-02 0.692D-01 0.255D-01 0.107D+00 0.189D+00 0.619D+00
 Coeff-En:   0.000D+00 0.000D+00 0.000D+00 0.000D+00 0.503D-02 0.995D+00
 Coeff:     -0.710D-02 0.540D-01 0.199D-01 0.838D-01 0.148D+00 0.701D+00
 Gap=     0.128 Goal=   None    Shift=    0.000
 Gap=     0.077 Goal=   None    Shift=    0.000
 RMSDP=2.28D-03 MaxDP=3.31D-02 DE=-1.14D-01 OVMax= 1.87D-01

 Cycle   7  Pass 0  IDiag  1:
 E= -268.787699197058     Delta-E=       -0.018744771713 Rises=F Damp=F
 DIIS: error= 8.38D-03 at cycle   7 NSaved=   7.
 NSaved= 7 IEnMin= 7 EnMin= -268.787699197058     IErMin= 7 ErrMin= 8.38D-03
 ErrMax= 8.38D-03 EMaxC= 1.00D-01 BMatC= 9.65D-03 BMatP= 2.73D-02
 IDIUse=3 WtCom= 9.16D-01 WtEn= 8.38D-02
 Coeff-Com: -0.542D-02 0.678D-01 0.509D-01 0.158D-01 0.389D-01 0.268D+00
 Coeff-Com:  0.564D+00
 Coeff-En:   0.000D+00 0.000D+00 0.000D+00 0.000D+00 0.000D+00 0.000D+00
 Coeff-En:   0.100D+01
 Coeff:     -0.496D-02 0.621D-01 0.466D-01 0.144D-01 0.357D-01 0.246D+00
 Coeff:      0.600D+00
 Gap=     0.169 Goal=   None    Shift=    0.000
 Gap=     0.097 Goal=   None    Shift=    0.000
 RMSDP=1.01D-03 MaxDP=1.64D-02 DE=-1.87D-02 OVMax= 8.70D-02

 Cycle   8  Pass 0  IDiag  1:
 E= -268.789604773163     Delta-E=       -0.001905576105 Rises=F Damp=F
 DIIS: error= 7.95D-03 at cycle   8 NSaved=   8.
 NSaved= 8 IEnMin= 8 EnMin= -268.789604773163     IErMin= 8 ErrMin= 7.95D-03
 ErrMax= 7.95D-03 EMaxC= 1.00D-01 BMatC= 1.27D-02 BMatP= 9.65D-03
 IDIUse=3 WtCom= 9.16D-01 WtEn= 8.38D-02
 Coeff-Com: -0.264D-02 0.941D-02 0.785D-01 0.332D-01-0.132D-02-0.340D+00
 Coeff-Com:  0.591D+00 0.631D+00
 Coeff-En:   0.000D+00 0.000D+00 0.000D+00 0.000D+00 0.000D+00 0.000D+00
 Coeff-En:   0.101D-01 0.990D+00
 Coeff:     -0.242D-02 0.862D-02 0.719D-01 0.304D-01-0.121D-02-0.312D+00
 Coeff:      0.543D+00 0.661D+00
 Gap=     0.221 Goal=   None    Shift=    0.000
 Gap=     0.102 Goal=   None    Shift=    0.000
 RMSDP=6.80D-04 MaxDP=1.10D-02 DE=-1.91D-03 OVMax= 4.05D-02

 Cycle   9  Pass 0  IDiag  1:
 E= -268.792477093395     Delta-E=       -0.002872320232 Rises=F Damp=F
 DIIS: error= 3.08D-03 at cycle   9 NSaved=   9.
 NSaved= 9 IEnMin= 9 EnMin= -268.792477093395     IErMin= 9 ErrMin= 3.08D-03
 ErrMax= 3.08D-03 EMaxC= 1.00D-01 BMatC= 2.54D-03 BMatP= 9.65D-03
 IDIUse=3 WtCom= 9.69D-01 WtEn= 3.08D-02
 Coeff-Com: -0.120D-01 0.539D-02 0.246D-01 0.548D-01 0.499D-01-0.152D+00
 Coeff-Com: -0.160D+00 0.267D+00 0.921D+00
 Coeff-En:   0.000D+00 0.000D+00 0.000D+00 0.000D+00 0.000D+00 0.000D+00
 Coeff-En:   0.000D+00 0.000D+00 0.100D+01
 Coeff:     -0.117D-01 0.522D-02 0.238D-01 0.531D-01 0.483D-01-0.147D+00
 Coeff:     -0.155D+00 0.259D+00 0.924D+00
 Gap=     0.238 Goal=   None    Shift=    0.000
 Gap=     0.096 Goal=   None    Shift=    0.000
 RMSDP=2.24D-04 MaxDP=3.72D-03 DE=-2.87D-03 OVMax= 7.57D-03

 Cycle  10  Pass 0  IDiag  1:
 E= -268.792968409377     Delta-E=       -0.000491315982 Rises=F Damp=F
 DIIS: error= 2.14D-03 at cycle  10 NSaved=  10.
 NSaved=10 IEnMin=10 EnMin= -268.792968409377     IErMin=10 ErrMin= 2.14D-03
 ErrMax= 2.14D-03 EMaxC= 1.00D-01 BMatC= 7.07D-04 BMatP= 2.54D-03
 IDIUse=3 WtCom= 9.79D-01 WtEn= 2.14D-02
 Coeff-Com: -0.106D-01 0.102D-01-0.350D-03 0.345D-01 0.400D-01 0.169D-01
 Coeff-Com: -0.250D+00-0.770D-01 0.424D+00 0.813D+00
 Coeff-En:   0.000D+00 0.000D+00 0.000D+00 0.000D+00 0.000D+00 0.000D+00
 Coeff-En:   0.000D+00 0.000D+00 0.000D+00 0.100D+01
 Coeff:     -0.104D-01 0.999D-02-0.342D-03 0.338D-01 0.391D-01 0.166D-01
 Coeff:     -0.245D+00-0.754D-01 0.415D+00 0.817D+00
 Gap=     0.247 Goal=   None    Shift=    0.000
 Gap=     0.093 Goal=   None    Shift=    0.000
 RMSDP=1.21D-04 MaxDP=1.75D-03 DE=-4.91D-04 OVMax= 6.42D-03

 Cycle  11  Pass 0  IDiag  1:
 E= -268.793118223568     Delta-E=       -0.000149814191 Rises=F Damp=F
 DIIS: error= 9.36D-04 at cycle  11 NSaved=  11.
 NSaved=11 IEnMin=11 EnMin= -268.793118223568     IErMin=11 ErrMin= 9.36D-04
 ErrMax= 9.36D-04 EMaxC= 1.00D-01 BMatC= 1.56D-04 BMatP= 7.07D-04
 IDIUse=3 WtCom= 9.91D-01 WtEn= 9.36D-03
 Coeff-Com: -0.475D-02 0.532D-02-0.302D-02 0.117D-01 0.108D-01 0.154D-01
 Coeff-Com: -0.761D-01-0.819D-01-0.734D-01 0.221D+00 0.975D+00
 Coeff-En:   0.000D+00 0.000D+00 0.000D+00 0.000D+00 0.000D+00 0.000D+00
 Coeff-En:   0.000D+00 0.000D+00 0.000D+00 0.000D+00 0.100D+01
 Coeff:     -0.470D-02 0.527D-02-0.299D-02 0.116D-01 0.107D-01 0.152D-01
 Coeff:     -0.754D-01-0.812D-01-0.727D-01 0.219D+00 0.976D+00
 Gap=     0.257 Goal=   None    Shift=    0.000
 Gap=     0.092 Goal=   None    Shift=    0.000
 RMSDP=8.18D-05 MaxDP=1.16D-03 DE=-1.50D-04 OVMax= 3.48D-03

 Cycle  12  Pass 0  IDiag  1:
 E= -268.793162728615     Delta-E=       -0.000044505046 Rises=F Damp=F
 DIIS: error= 2.31D-04 at cycle  12 NSaved=  12.
 NSaved=12 IEnMin=12 EnMin= -268.793162728615     IErMin=12 ErrMin= 2.31D-04
 ErrMax= 2.31D-04 EMaxC= 1.00D-01 BMatC= 6.68D-06 BMatP= 1.56D-04
 IDIUse=3 WtCom= 9.98D-01 WtEn= 2.31D-03
 Coeff-Com: -0.852D-03 0.284D-03-0.107D-02 0.289D-02 0.237D-02-0.404D-02
 Coeff-Com: -0.113D-01-0.478D-02-0.162D-01-0.232D-01 0.526D-01 0.100D+01
 Coeff-En:   0.000D+00 0.000D+00 0.000D+00 0.000D+00 0.000D+00 0.000D+00
 Coeff-En:   0.000D+00 0.000D+00 0.000D+00 0.000D+00 0.000D+00 0.100D+01
 Coeff:     -0.850D-03 0.283D-03-0.107D-02 0.289D-02 0.237D-02-0.403D-02
 Coeff:     -0.113D-01-0.477D-02-0.161D-01-0.232D-01 0.524D-01 0.100D+01
 Gap=     0.260 Goal=   None    Shift=    0.000
 Gap=     0.093 Goal=   None    Shift=    0.000
 RMSDP=2.46D-05 MaxDP=3.68D-04 DE=-4.45D-05 OVMax= 1.39D-03

 Cycle  13  Pass 0  IDiag  1:
 E= -268.793164812269     Delta-E=       -0.000002083654 Rises=F Damp=F
 DIIS: error= 2.54D-05 at cycle  13 NSaved=  13.
 NSaved=13 IEnMin=13 EnMin= -268.793164812269     IErMin=13 ErrMin= 2.54D-05
 ErrMax= 2.54D-05 EMaxC= 1.00D-01 BMatC= 1.34D-07 BMatP= 6.68D-06
 IDIUse=1 WtCom= 1.00D+00 WtEn= 0.00D+00
 Coeff-Com:  0.481D-04-0.144D-03-0.211D-03 0.791D-05 0.268D-03-0.712D-03
 Coeff-Com: -0.151D-02 0.498D-02 0.927D-02-0.683D-02-0.513D-01 0.988D-01
 Coeff-Com:  0.947D+00
 Coeff:      0.481D-04-0.144D-03-0.211D-03 0.791D-05 0.268D-03-0.712D-03
 Coeff:     -0.151D-02 0.498D-02 0.927D-02-0.683D-02-0.513D-01 0.988D-01
 Coeff:      0.947D+00
 Gap=     0.260 Goal=   None    Shift=    0.000
 Gap=     0.093 Goal=   None    Shift=    0.000
 RMSDP=5.01D-06 MaxDP=7.56D-05 DE=-2.08D-06 OVMax= 4.56D-04

 Initial convergence to 1.0D-05 achieved.  Increase integral accuracy.
 Cycle  14  Pass 1  IDiag  1:
 E= -268.793122884503     Delta-E=        0.000041927766 Rises=F Damp=F
 DIIS: error= 1.26D-05 at cycle   1 NSaved=   1.
 NSaved= 1 IEnMin= 1 EnMin= -268.793122884503     IErMin= 1 ErrMin= 1.26D-05
 ErrMax= 1.26D-05 EMaxC= 1.00D-01 BMatC= 8.16D-08 BMatP= 8.16D-08
 IDIUse=1 WtCom= 1.00D+00 WtEn= 0.00D+00
 Coeff-Com:  0.100D+01
 Coeff:      0.100D+01
 Gap=     0.259 Goal=   None    Shift=    0.000
 Gap=     0.093 Goal=   None    Shift=    0.000
 RMSDP=5.01D-06 MaxDP=7.56D-05 DE= 4.19D-05 OVMax= 1.39D-04

 Cycle  15  Pass 1  IDiag  1:
 E= -268.793122893825     Delta-E=       -0.000000009322 Rises=F Damp=F
 DIIS: error= 1.79D-05 at cycle   2 NSaved=   2.
 NSaved= 2 IEnMin= 2 EnMin= -268.793122893825     IErMin= 1 ErrMin= 1.26D-05
 ErrMax= 1.79D-05 EMaxC= 1.00D-01 BMatC= 8.12D-08 BMatP= 8.16D-08
 IDIUse=1 WtCom= 1.00D+00 WtEn= 0.00D+00
 Coeff-Com:  0.499D+00 0.501D+00
 Coeff:      0.499D+00 0.501D+00
 Gap=     0.259 Goal=   None    Shift=    0.000
 Gap=     0.093 Goal=   None    Shift=    0.000
 RMSDP=1.88D-06 MaxDP=4.22D-05 DE=-9.32D-09 OVMax= 1.19D-04

 Cycle  16  Pass 1  IDiag  1:
 E= -268.793122907373     Delta-E=       -0.000000013548 Rises=F Damp=F
 DIIS: error= 1.68D-05 at cycle   3 NSaved=   3.
 NSaved= 3 IEnMin= 3 EnMin= -268.793122907373     IErMin= 1 ErrMin= 1.26D-05
 ErrMax= 1.68D-05 EMaxC= 1.00D-01 BMatC= 2.98D-08 BMatP= 8.12D-08
 IDIUse=1 WtCom= 1.00D+00 WtEn= 0.00D+00
 Coeff-Com:  0.185D+00 0.359D+00 0.456D+00
 Coeff:      0.185D+00 0.359D+00 0.456D+00
 Gap=     0.259 Goal=   None    Shift=    0.000
 Gap=     0.093 Goal=   None    Shift=    0.000
 RMSDP=7.03D-07 MaxDP=2.71D-05 DE=-1.35D-08 OVMax= 4.89D-05

 Cycle  17  Pass 1  IDiag  1:
 E= -268.793122911838     Delta-E=       -0.000000004465 Rises=F Damp=F
 DIIS: error= 6.28D-06 at cycle   4 NSaved=   4.
 NSaved= 4 IEnMin= 4 EnMin= -268.793122911838     IErMin= 4 ErrMin= 6.28D-06
 ErrMax= 6.28D-06 EMaxC= 1.00D-01 BMatC= 5.50D-09 BMatP= 2.98D-08
 IDIUse=1 WtCom= 1.00D+00 WtEn= 0.00D+00
 Coeff-Com: -0.305D-01 0.107D+00 0.334D+00 0.589D+00
 Coeff:     -0.305D-01 0.107D+00 0.334D+00 0.589D+00
 Gap=     0.259 Goal=   None    Shift=    0.000
 Gap=     0.093 Goal=   None    Shift=    0.000
 RMSDP=3.41D-07 MaxDP=8.97D-06 DE=-4.46D-09 OVMax= 1.91D-05

 Cycle  18  Pass 1  IDiag  1:
 E= -268.793122913073     Delta-E=       -0.000000001236 Rises=F Damp=F
 DIIS: error= 9.69D-07 at cycle   5 NSaved=   5.
 NSaved= 5 IEnMin= 5 EnMin= -268.793122913073     IErMin= 5 ErrMin= 9.69D-07
 ErrMax= 9.69D-07 EMaxC= 1.00D-01 BMatC= 1.20D-10 BMatP= 5.50D-09
 IDIUse=1 WtCom= 1.00D+00 WtEn= 0.00D+00
 Coeff-Com: -0.206D-01 0.871D-02 0.495D-01 0.136D+00 0.827D+00
 Coeff:     -0.206D-01 0.871D-02 0.495D-01 0.136D+00 0.827D+00
 Gap=     0.259 Goal=   None    Shift=    0.000
 Gap=     0.093 Goal=   None    Shift=    0.000
 RMSDP=1.10D-07 MaxDP=2.97D-06 DE=-1.24D-09 OVMax= 6.90D-06

 Cycle  19  Pass 1  IDiag  1:
 E= -268.793122913150     Delta-E=       -0.000000000077 Rises=F Damp=F
 DIIS: error= 4.11D-07 at cycle   6 NSaved=   6.
 NSaved= 6 IEnMin= 6 EnMin= -268.793122913150     IErMin= 6 ErrMin= 4.11D-07
 ErrMax= 4.11D-07 EMaxC= 1.00D-01 BMatC= 3.06D-11 BMatP= 1.20D-10
 IDIUse=1 WtCom= 1.00D+00 WtEn= 0.00D+00
 Coeff-Com:  0.366D-02-0.289D-01-0.973D-01-0.159D+00 0.228D+00 0.105D+01
 Coeff:      0.366D-02-0.289D-01-0.973D-01-0.159D+00 0.228D+00 0.105D+01
 Gap=     0.259 Goal=   None    Shift=    0.000
 Gap=     0.093 Goal=   None    Shift=    0.000
 RMSDP=8.63D-08 MaxDP=2.30D-06 DE=-7.67D-11 OVMax= 6.26D-06

 Cycle  20  Pass 1  IDiag  1:
 E= -268.793122913177     Delta-E=       -0.000000000027 Rises=F Damp=F
 DIIS: error= 6.84D-08 at cycle   7 NSaved=   7.
 NSaved= 7 IEnMin= 7 EnMin= -268.793122913177     IErMin= 7 ErrMin= 6.84D-08
 ErrMax= 6.84D-08 EMaxC= 1.00D-01 BMatC= 1.78D-12 BMatP= 3.06D-11
 IDIUse=1 WtCom= 1.00D+00 WtEn= 0.00D+00
 Coeff-Com:  0.240D-02-0.880D-02-0.294D-01-0.516D-01 0.117D-01 0.286D+00
 Coeff-Com:  0.789D+00
 Coeff:      0.240D-02-0.880D-02-0.294D-01-0.516D-01 0.117D-01 0.286D+00
 Coeff:      0.789D+00
 Gap=     0.259 Goal=   None    Shift=    0.000
 Gap=     0.093 Goal=   None    Shift=    0.000
 RMSDP=1.32D-08 MaxDP=3.37D-07 DE=-2.73D-11 OVMax= 9.43D-07

 Cycle  21  Pass 1  IDiag  1:
 E= -268.793122913179     Delta-E=       -0.000000000001 Rises=F Damp=F
 DIIS: error= 2.79D-08 at cycle   8 NSaved=   8.
 NSaved= 8 IEnMin= 8 EnMin= -268.793122913179     IErMin= 8 ErrMin= 2.79D-08
 ErrMax= 2.79D-08 EMaxC= 1.00D-01 BMatC= 4.22D-13 BMatP= 1.78D-12
 IDIUse=1 WtCom= 1.00D+00 WtEn= 0.00D+00
 Coeff-Com:  0.464D-03-0.409D-03-0.613D-04-0.141D-02-0.202D-01-0.150D-01
 Coeff-Com:  0.309D+00 0.728D+00
 Coeff:      0.464D-03-0.409D-03-0.613D-04-0.141D-02-0.202D-01-0.150D-01
 Coeff:      0.309D+00 0.728D+00
 Gap=     0.259 Goal=   None    Shift=    0.000
 Gap=     0.093 Goal=   None    Shift=    0.000
 RMSDP=5.04D-09 MaxDP=1.06D-07 DE=-1.36D-12 OVMax= 2.90D-07

 SCF Done:  E(UB3LYP) =  -268.793122913     A.U. after   21 cycles
             Convg  =    0.5038D-08             -V/T =  2.0092
 <Sx>= 0.0000 <Sy>= 0.0000 <Sz>= 0.5000 <S**2>= 1.7235 S= 0.9048
 <L.S>= 0.000000000000E+00
 KE= 2.663378552507D+02 PE=-9.408704153175D+02 EE= 2.494058006837D+02
 Annihilation of the first spin contaminant:
 S**2 before annihilation     1.7235,   after     0.7826
 Leave Link  502 at Wed Apr  1 00:25:17 2015, MaxMem= 3758096384 cpu:      91.7
 (Enter /share/apps/g09/l601.exe)
 Copying SCF densities to generalized density rwf, IOpCl= 1 IROHF=0.

 **********************************************************************

            Population analysis using the SCF density.

 **********************************************************************

 Orbital symmetries:
 Alpha Orbitals:
       Occupied  (A) (A) (A) (A) (A) (A) (A) (A) (A) (A) (A) (A)
                 (A) (A) (A) (A) (A) (A) (A) (A) (A)
       Virtual   (A) (A) (A) (A) (A) (A) (A) (A) (A) (A) (A) (A)
                 (A) (A) (A) (A) (A) (A) (A) (A) (A) (A) (A) (A)
                 (A) (A) (A) (A) (A) (A) (A) (A) (A) (A) (A) (A)
                 (A) (A) (A) (A) (A) (A) (A) (A) (A) (A) (A) (A)
                 (A) (A) (A) (A) (A) (A) (A) (A) (A) (A) (A) (A)
                 (A) (A) (A) (A) (A) (A) (A) (A)
 Beta  Orbitals:
       Occupied  (A) (A) (A) (A) (A) (A) (A) (A) (A) (A) (A) (A)
                 (A) (A) (A) (A) (A) (A) (A) (A)
       Virtual   (A) (A) (A) (A) (A) (A) (A) (A) (A) (A) (A) (A)
                 (A) (A) (A) (A) (A) (A) (A) (A) (A) (A) (A) (A)
                 (A) (A) (A) (A) (A) (A) (A) (A) (A) (A) (A) (A)
                 (A) (A) (A) (A) (A) (A) (A) (A) (A) (A) (A) (A)
                 (A) (A) (A) (A) (A) (A) (A) (A) (A) (A) (A) (A)
                 (A) (A) (A) (A) (A) (A) (A) (A) (A)
 The electronic state is 2-A.
 Alpha  occ. eigenvalues --  -19.30412 -19.30090 -10.18867 -10.17640 -10.17436
 Alpha  occ. eigenvalues --   -1.28968  -0.82910  -0.77216  -0.65686  -0.56794
 Alpha  occ. eigenvalues --   -0.54932  -0.54780  -0.53756  -0.44891  -0.43222
 Alpha  occ. eigenvalues --   -0.40080  -0.35246  -0.34604  -0.33857  -0.29973
 Alpha  occ. eigenvalues --   -0.29857
 Alpha virt. eigenvalues --   -0.03914   0.10506   0.14677   0.15033   0.15710
 Alpha virt. eigenvalues --    0.17319   0.18742   0.20284   0.20712   0.24683
 Alpha virt. eigenvalues --    0.28394   0.51328   0.52144   0.54076   0.57807
 Alpha virt. eigenvalues --    0.59917   0.62871   0.66960   0.69199   0.71972
 Alpha virt. eigenvalues --    0.73907   0.77992   0.79823   0.82659   0.85120
 Alpha virt. eigenvalues --    0.86965   0.87417   0.88751   0.90441   0.92121
 Alpha virt. eigenvalues --    0.94334   0.95799   0.98380   1.01153   1.03088
 Alpha virt. eigenvalues --    1.21360   1.30359   1.44357   1.49154   1.49574
 Alpha virt. eigenvalues --    1.50173   1.52541   1.52898   1.60075   1.73118
 Alpha virt. eigenvalues --    1.85175   1.90161   1.90248   1.93257   1.95570
 Alpha virt. eigenvalues --    2.01265   2.08336   2.17165   2.24070   2.34210
 Alpha virt. eigenvalues --    2.37131   2.40325   2.43607   2.54327   2.54680
 Alpha virt. eigenvalues --    2.61687   2.68639   2.81163   3.18208   3.51971
 Alpha virt. eigenvalues --    4.12017   4.23621   4.44716
  Beta  occ. eigenvalues --  -19.27503 -19.27204 -10.18988 -10.18780 -10.17470
  Beta  occ. eigenvalues --   -1.23242  -0.78139  -0.74166  -0.67384  -0.58185
  Beta  occ. eigenvalues --   -0.49885  -0.45464  -0.44851  -0.44753  -0.43819
  Beta  occ. eigenvalues --   -0.40612  -0.35877  -0.35159  -0.34163  -0.19840
  Beta virt. eigenvalues --   -0.10575  -0.10529   0.10315   0.13779   0.14491
  Beta virt. eigenvalues --    0.15483   0.17295   0.18547   0.20100   0.24206
  Beta virt. eigenvalues --    0.24647   0.27774   0.50914   0.51370   0.52269
  Beta virt. eigenvalues --    0.56899   0.58836   0.60742   0.66700   0.70654
  Beta virt. eigenvalues --    0.71981   0.74992   0.79779   0.81812   0.85187
  Beta virt. eigenvalues --    0.86366   0.86915   0.88747   0.89610   0.92191
  Beta virt. eigenvalues --    0.93466   0.94038   0.95781   0.99096   1.02437
  Beta virt. eigenvalues --    1.04519   1.20950   1.32709   1.42781   1.48788
  Beta virt. eigenvalues --    1.52789   1.53032   1.57904   1.58257   1.60006
  Beta virt. eigenvalues --    1.67987   1.83618   1.91535   1.94681   1.97011
  Beta virt. eigenvalues --    1.97400   1.98873   2.06052   2.14431   2.23723
  Beta virt. eigenvalues --    2.33577   2.35874   2.42844   2.43902   2.58505
  Beta virt. eigenvalues --    2.58783   2.60940   2.68077   2.83685   3.22532
  Beta virt. eigenvalues --    3.56297   4.10038   4.22500   4.44352
          Condensed to atoms (all electrons):
              1          2          3          4          5          6
     1  C    5.068365   0.375760   0.369780   0.378613   0.378387  -0.036195
     2  H    0.375760   0.565593  -0.029278  -0.031995  -0.035511  -0.004896
     3  H    0.369780  -0.029278   0.577665  -0.031277  -0.028604  -0.002796
     4  H    0.378613  -0.031995  -0.031277   0.575804  -0.035719   0.005068
     5  C    0.378387  -0.035511  -0.028604  -0.035719   4.909811   0.378147
     6  H   -0.036195  -0.004896  -0.002796   0.005068   0.378147   0.597132
     7  H   -0.041748   0.005454  -0.002205  -0.004486   0.370484  -0.042057
     8  C   -0.048480  -0.000435   0.004535  -0.004186   0.393264  -0.039922
     9  H    0.003855   0.000032  -0.000154  -0.000015  -0.031410  -0.004517
    10  H   -0.005258   0.000065   0.000040   0.004277  -0.039652   0.004520
    11  O   -0.000882   0.003636   0.000008  -0.000002  -0.000142  -0.000015
    12  O    0.000028  -0.000102   0.000000   0.000001   0.000004   0.000001
              7          8          9         10         11         12
     1  C   -0.041748  -0.048480   0.003855  -0.005258  -0.000882   0.000028
     2  H    0.005454  -0.000435   0.000032   0.000065   0.003636  -0.000102
     3  H   -0.002205   0.004535  -0.000154   0.000040   0.000008   0.000000
     4  H   -0.004486  -0.004186  -0.000015   0.004277  -0.000002   0.000001
     5  C    0.370484   0.393264  -0.031410  -0.039652  -0.000142   0.000004
     6  H   -0.042057  -0.039922  -0.004517   0.004520  -0.000015   0.000001
     7  H    0.616240  -0.049918   0.001122   0.000335   0.000009   0.000000
     8  C   -0.049918   5.294812   0.368570   0.373316   0.007018  -0.000686
     9  H    0.001122   0.368570   0.556985  -0.037835  -0.000053   0.000004
    10  H    0.000335   0.373316  -0.037835   0.557473  -0.000115   0.000132
    11  O    0.000009   0.007018  -0.000053  -0.000115   7.879158   0.114907
    12  O    0.000000  -0.000686   0.000004   0.000132   0.114907   7.899304
 Mulliken atomic charges:
              1
     1  C   -0.442224
     2  H    0.151676
     3  H    0.142285
     4  H    0.143916
     5  C   -0.259060
     6  H    0.145529
     7  H    0.146771
     8  C   -0.297889
     9  H    0.143415
    10  H    0.142703
    11  O   -0.003527
    12  O   -0.013594
 Sum of Mulliken atomic charges =   0.00000
 Mulliken charges with hydrogens summed into heavy atoms:
              1
     1  C   -0.004347
     5  C    0.033240
     8  C   -0.011772
    11  O   -0.003527
    12  O   -0.013594
 Sum of Mulliken charges with hydrogens summed into heavy atoms =   0.00000
          Atomic-Atomic Spin Densities.
              1          2          3          4          5          6
     1  C   -0.026168   0.005729   0.004546  -0.001274  -0.008300  -0.006408
     2  H    0.005729  -0.003552  -0.001905   0.000889   0.001031   0.001191
     3  H    0.004546  -0.001905  -0.002823   0.000653  -0.000211   0.001020
     4  H   -0.001274   0.000889   0.000653   0.000058  -0.000736  -0.000219
     5  C   -0.008300   0.001031  -0.000211  -0.000736   0.062946  -0.005860
     6  H   -0.006408   0.001191   0.001020  -0.000219  -0.005860  -0.027345
     7  H    0.010055  -0.000916  -0.002326   0.001239  -0.012238   0.012707
     8  C    0.012334  -0.005086  -0.000506   0.000446   0.037991   0.010354
     9  H   -0.000066   0.000039   0.000002  -0.000019   0.000339  -0.000876
    10  H   -0.000856   0.000100   0.000047  -0.000096  -0.000132  -0.000104
    11  O   -0.000160   0.000526   0.000001   0.000007   0.000110   0.000035
    12  O    0.000050  -0.000257   0.000000  -0.000002  -0.000001   0.000000
              7          8          9         10         11         12
     1  C    0.010055   0.012334  -0.000066  -0.000856  -0.000160   0.000050
     2  H   -0.000916  -0.005086   0.000039   0.000100   0.000526  -0.000257
     3  H   -0.002326  -0.000506   0.000002   0.000047   0.000001   0.000000
     4  H    0.001239   0.000446  -0.000019  -0.000096   0.000007  -0.000002
     5  C   -0.012238   0.037991   0.000339  -0.000132   0.000110  -0.000001
     6  H    0.012707   0.010354  -0.000876  -0.000104   0.000035   0.000000
     7  H   -0.098962   0.030439   0.000584   0.000546  -0.000004   0.000000
     8  C    0.030439  -1.156458   0.006542   0.007411  -0.002383   0.000240
     9  H    0.000584   0.006542   0.045415  -0.002296   0.000023  -0.000001
    10  H    0.000546   0.007411  -0.002296   0.044763  -0.000126   0.000026
    11  O   -0.000004  -0.002383   0.000023  -0.000126   1.309238  -0.318593
    12  O    0.000000   0.000240  -0.000001   0.000026  -0.318593   1.302298
 Mulliken atomic spin densities:
              1
     1  C   -0.010518
     2  H   -0.002212
     3  H   -0.001502
     4  H    0.000946
     5  C    0.074940
     6  H   -0.015505
     7  H   -0.058874
     8  C   -1.058676
     9  H    0.049686
    10  H    0.049282
    11  O    0.988673
    12  O    0.983761
 Sum of Mulliken atomic spin densities =   1.00000
 Electronic spatial extent (au):  <R**2>=            771.4968
 Charge=              0.0000 electrons
 Dipole moment (field-independent basis, Debye):
    X=             -0.5811    Y=              0.0658    Z=             -0.0555  Tot=              0.5874
 Quadrupole moment (field-independent basis, Debye-Ang):
   XX=            -30.9220   YY=            -30.4681   ZZ=            -30.2745
   XY=              0.2191   XZ=              0.0619   YZ=             -0.1338
 Traceless Quadrupole moment (field-independent basis, Debye-Ang):
   XX=             -0.3671   YY=              0.0867   ZZ=              0.2804
   XY=              0.2191   XZ=              0.0619   YZ=             -0.1338
 Octapole moment (field-independent basis, Debye-Ang**2):
  XXX=             19.4987  YYY=              0.1264  ZZZ=             -0.3786  XYY=              8.5524
  XXY=             -1.2493  XXZ=             -2.3016  XZZ=              6.9701  YZZ=             -0.2611
  YYZ=             -1.6436  XYZ=              0.4907
 Hexadecapole moment (field-independent basis, Debye-Ang**3):
 XXXX=           -683.6649 YYYY=           -184.5100 ZZZZ=            -68.8693 XXXY=              0.6782
 XXXZ=             -2.5094 YYYX=             -1.4517 YYYZ=             -2.0870 ZZZX=             -0.1890
 ZZZY=             -0.6034 XXYY=           -145.4937 XXZZ=           -126.2512 YYZZ=            -43.5534
 XXYZ=              0.0983 YYXZ=              1.8972 ZZXY=             -0.2073
 N-N= 1.563336364699D+02 E-N=-1.400819815539D+03  KE= 3.968172944916D+02
                          Isotropic Fermi Contact Couplings
        Atom                 a.u.       MegaHertz       Gauss      10(-4) cm-1
     1  C(13)             -0.01579     -17.75359      -6.33492      -5.92196
     2  H(1)               0.00054       2.40168       0.85698       0.80111
     3  H(1)              -0.00003      -0.13410      -0.04785      -0.04473
     4  H(1)               0.00033       1.45353       0.51866       0.48485
     5  C(13)              0.02491      28.00848       9.99412       9.34262
     6  H(1)              -0.00856     -38.27009     -13.65572     -12.76553
     7  H(1)              -0.03061    -136.84014     -48.82796     -45.64496
     8  C(13)             -0.11771    -132.32492     -47.21682     -44.13884
     9  H(1)               0.01470      65.69584      23.44191      21.91377
    10  H(1)               0.01456      65.08346      23.22340      21.70951
    11  O(17)              0.13414     -81.31761     -29.01615     -27.12464
    12  O(17)              0.13719     -83.16201     -29.67427     -27.73986
 --------------------------------------------------------
       Center         ----  Spin Dipole Couplings  ----
                      3XX-RR        3YY-RR        3ZZ-RR
 --------------------------------------------------------
     1   Atom        0.018762     -0.024642      0.005880
     2   Atom        0.016240     -0.015354     -0.000886
     3   Atom        0.005236     -0.006423      0.001187
     4   Atom        0.008487     -0.009064      0.000576
     5   Atom       -0.001487     -0.004136      0.005623
     6   Atom        0.010218      0.000601     -0.010819
     7   Atom       -0.008596      0.002061      0.006534
     8   Atom       -0.518692      0.209047      0.309645
     9   Atom        0.023909     -0.049774      0.025865
    10   Atom        0.019909      0.049533     -0.069442
    11   Atom       -0.415628      1.105069     -0.689441
    12   Atom       -0.425956      1.139384     -0.713429
 --------------------------------------------------------
                        XY            XZ            YZ
 --------------------------------------------------------
     1   Atom       -0.005909     -0.000331      0.007906
     2   Atom        0.011106     -0.001723     -0.002527
     3   Atom       -0.001259     -0.000665     -0.001357
     4   Atom       -0.001872     -0.000771      0.004700
     5   Atom       -0.007806     -0.000700     -0.009796
     6   Atom       -0.005672     -0.006723     -0.009501
     7   Atom       -0.008115     -0.005413     -0.004220
     8   Atom        0.563050      0.459579     -0.247047
     9   Atom       -0.010785      0.031931      0.046031
    10   Atom        0.022886     -0.027741      0.009956
    11   Atom        0.282117     -1.683559      0.301208
    12   Atom        0.316674     -1.650433      0.271030
 --------------------------------------------------------


 ---------------------------------------------------------------------------------
              Anisotropic Spin Dipole Couplings in Principal Axis System
 ---------------------------------------------------------------------------------

       Atom             a.u.   MegaHertz   Gauss  10(-4) cm-1        Axes

              Baa    -0.0273    -3.659    -1.306    -1.220  0.1223  0.9657 -0.2291
     1 C(13)  Bbb     0.0076     1.015     0.362     0.339  0.1403  0.2117  0.9672
              Bcc     0.0197     2.644     0.943     0.882  0.9825 -0.1505 -0.1096
 
              Baa    -0.0191   -10.172    -3.630    -3.393 -0.2938  0.9502  0.1042
     2 H(1)   Bbb    -0.0010    -0.515    -0.184    -0.172  0.1408 -0.0648  0.9879
              Bcc     0.0200    10.688     3.814     3.565  0.9454  0.3049 -0.1147
 
              Baa    -0.0068    -3.634    -1.297    -1.212  0.1119  0.9781  0.1753
     3 H(1)   Bbb     0.0014     0.733     0.262     0.245  0.1072 -0.1873  0.9764
              Bcc     0.0054     2.901     1.035     0.968  0.9879 -0.0904 -0.1258
 
              Baa    -0.0111    -5.913    -2.110    -1.972  0.0741  0.9266 -0.3686
     4 H(1)   Bbb     0.0022     1.161     0.414     0.387  0.2143  0.3462  0.9133
              Bcc     0.0089     4.752     1.696     1.585  0.9739 -0.1467 -0.1730
 
              Baa    -0.0142    -1.907    -0.680    -0.636  0.4955  0.7717  0.3987
     5 C(13)  Bbb     0.0015     0.201     0.072     0.067  0.8227 -0.2696 -0.5005
              Bcc     0.0127     1.706     0.609     0.569  0.2788 -0.5760  0.7685
 
              Baa    -0.0188   -10.020    -3.575    -3.342  0.2866  0.4880  0.8244
     6 H(1)   Bbb     0.0056     3.012     1.075     1.005  0.1988  0.8115 -0.5495
              Bcc     0.0131     7.008     2.501     2.338  0.9372 -0.3213 -0.1356
 
              Baa    -0.0151    -8.056    -2.875    -2.687  0.8320  0.4671  0.2993
     7 H(1)   Bbb     0.0060     3.200     1.142     1.068 -0.5517  0.7531  0.3583
              Bcc     0.0091     4.856     1.733     1.620 -0.0581 -0.4633  0.8843
 
              Baa    -1.0286  -138.033   -49.254   -46.043  0.8186 -0.4449 -0.3632
     8 C(13)  Bbb     0.5115    68.633    24.490    22.893  0.0170 -0.6133  0.7896
              Bcc     0.5172    69.401    24.764    23.150  0.5741  0.6526  0.4945
 
              Baa    -0.0772   -41.194   -14.699   -13.741  0.2356  0.8581 -0.4562
     9 H(1)   Bbb     0.0132     7.066     2.521     2.357  0.7970 -0.4392 -0.4146
              Bcc     0.0640    34.128    12.178    11.384  0.5561  0.2659  0.7874
 
              Baa    -0.0794   -42.342   -15.109   -14.124  0.2937 -0.1254  0.9476
    10 H(1)   Bbb     0.0172     9.177     3.275     3.061  0.8174 -0.4810 -0.3170
              Bcc     0.0622    33.165    11.834    11.062  0.4955  0.8677 -0.0388
 
              Baa    -2.2918   165.832    59.173    55.316  0.6730 -0.1206  0.7298
    11 O(17)  Bbb     1.1360   -82.203   -29.332   -27.420  0.7114 -0.1644 -0.6833
              Bcc     1.1557   -83.629   -29.841   -27.896  0.2024  0.9790 -0.0248
 
              Baa    -2.2765   164.726    58.778    54.947  0.6722 -0.1203  0.7306
    12 O(17)  Bbb     1.0667   -77.186   -27.542   -25.746 -0.6511  0.3737  0.6606
              Bcc     1.2098   -87.540   -31.237   -29.200  0.3525  0.9197 -0.1728
 

 ---------------------------------------------------------------------------------

 No NMR shielding tensors so no spin-rotation constants.
 Leave Link  601 at Wed Apr  1 00:25:18 2015, MaxMem= 3758096384 cpu:      11.2
 (Enter /share/apps/g09/l701.exe)
 Compute integral first derivatives.
 ... and contract with generalized density number  0.
 Leave Link  701 at Wed Apr  1 00:25:19 2015, MaxMem= 3758096384 cpu:       5.5
 (Enter /share/apps/g09/l702.exe)
 L702 exits ... SP integral derivatives will be done elsewhere.
 Leave Link  702 at Wed Apr  1 00:25:19 2015, MaxMem= 3758096384 cpu:       0.2
 (Enter /share/apps/g09/l703.exe)
 Compute integral first derivatives, UseDBF=F ICtDFT=           0.
 Integral derivatives from FoFDir, PRISM(SPDF).
 Calling FoFJK, ICntrl=      2127 FMM=F ISym2X=0 I1Cent= 0 IOpClX= 1 NMat=1 NMatS=1 NMatT=0.
 FoFCou: FMM=F IPFlag=           0 FMFlag=      100000 FMFlg1=         800
         NFxFlg=           0 DoJE=F BraDBF=F KetDBF=F FulRan=T
         Omega=  0.000000  0.000000  1.000000  0.000000  0.000000 ICntrl=    2127 IOpCl=  1
         NMat0=    1 NMatS0=    1 NMatT0=    0 NMatD0=    1 NMtDS0=    0 NMtDT0=    0
         I1Cent=           0 NGrid=           0.
 Symmetry not used in FoFCou.
 Leave Link  703 at Wed Apr  1 00:25:20 2015, MaxMem= 3758096384 cpu:      13.6
 (Enter /share/apps/g09/l716.exe)
 Dipole        =-2.28609902D-01 2.58828424D-02-2.18367359D-02
 ***** Axes restored to original set *****
 -------------------------------------------------------------------
 Center     Atomic                   Forces (Hartrees/Bohr)
 Number     Number              X              Y              Z
 -------------------------------------------------------------------
      1        6          -0.000030089    0.000063071   -0.000034540
      2        1           0.000085956   -0.000030378   -0.000006253
      3        1           0.000011793   -0.000027742   -0.000005295
      4        1           0.000009079   -0.000000926   -0.000000835
      5        6          -0.000071753    0.000050344    0.000025559
      6        1          -0.000010972   -0.000032030   -0.000024021
      7        1          -0.000035979   -0.000057517   -0.000022016
      8        6           0.001147276   -0.000384156   -0.000267030
      9        1           0.000019352    0.000005536   -0.000022476
     10        1           0.000024977   -0.000024859    0.000025572
     11        8          -0.000430637    0.000315242    0.001108651
     12        8          -0.000719003    0.000123415   -0.000777316
 -------------------------------------------------------------------
 Cartesian Forces:  Max     0.001147276 RMS     0.000342332
 Leave Link  716 at Wed Apr  1 00:25:20 2015, MaxMem= 3758096384 cpu:       0.3
 (Enter /share/apps/g09/l103.exe)

 GradGradGradGradGradGradGradGradGradGradGradGradGradGradGradGradGradGrad
 Berny optimization.
 Internal  Forces:  Max     0.000778989 RMS     0.000116568
 Search for a local minimum.
 Step number   1 out of a maximum of  100
 All quantities printed in internal units (Hartrees-Bohrs-Radians)
 RMS Force = .96281D-04 SwitMx=.10000D-02 MixMth= 2
 Mixed Optimization -- En-DIIS/RFO-DIIS
 Second derivative matrix not updated -- first step.
     Eigenvalues ---    0.00332   0.00785   0.00931   0.01375   0.01697
     Eigenvalues ---    0.01958   0.02449   0.02987   0.03985   0.04172
     Eigenvalues ---    0.05936   0.07073   0.07392   0.09141   0.09854
     Eigenvalues ---    0.11057   0.11912   0.13697   0.14648   0.25501
     Eigenvalues ---    0.27080   0.28344   0.30623   0.31712   0.32606
     Eigenvalues ---    0.32912   0.34040   0.34165   0.784671000.00000
     Eigenvalues --- 1000.000001000.000001000.000001000.000001000.00000
     Eigenvalues --- 1000.000001000.000001000.000001000.000001000.00000
     Eigenvalues --- 1000.000001000.000001000.000001000.000001000.00000
     Eigenvalues --- 1000.000001000.000001000.000001000.000001000.00000
     Eigenvalues --- 1000.000001000.000001000.000001000.000001000.00000
     Eigenvalues --- 1000.000001000.000001000.000001000.000001000.00000
     Eigenvalues --- 1000.000001000.000001000.000001000.000001000.00000
     Eigenvalues --- 1000.000001000.000001000.000001000.000001000.00000
     Eigenvalues --- 1000.000001000.000001000.000001000.000001000.00000
     Eigenvalues --- 1000.000001000.000001000.000001000.000001000.00000
     Eigenvalues --- 1000.000001000.000001000.000001000.000001000.00000
     Eigenvalues --- 1000.000001000.000001000.000001000.000001000.00000
     Eigenvalues --- 1000.000001000.000001000.000001000.000001000.00000
     Eigenvalues --- 1000.00000
 RFO step:  Lambda=-1.53602149D-06 EMin= 3.31543205D-03
 Linear search not attempted -- first point.
 Iteration  1 RMS(Cart)=  0.00031814 RMS(Int)=  0.00000044
 Iteration  2 RMS(Cart)=  0.00000014 RMS(Int)=  0.00000011
 Iteration  1 RMS(Cart)=  0.00000000 RMS(Int)=  0.00000000
 Variable       Old X    -DE/DX   Delta X   Delta X   Delta X     New X
                                 (Linear)    (Quad)   (Total)
    R1        2.06976  -0.00002   0.00000   0.00016   0.00016   2.06991
    R2        2.07052   0.00001   0.00000   0.00003   0.00003   2.07056
    R3        2.07262   0.00000   0.00000   0.00000   0.00000   2.07262
    R4        2.90184  -0.00001   0.00000  -0.00002  -0.00002   2.90182
    R5        7.23287   0.00001   0.00000  -0.00163  -0.00163   7.23125
    R6        5.68573   0.00004   0.00000  -0.00205  -0.00205   5.68368
    R7        6.93236  -0.00017   0.00000  -0.00245  -0.00245   6.92991
    R8        2.07726  -0.00001   0.00000   0.00006   0.00006   2.07732
    R9        2.09206   0.00001   0.00000   0.00004   0.00004   2.09211
   R10        2.81760   0.00018   0.00000   0.00033   0.00033   2.81794
   R11        7.19703  -0.00012   0.00000  -0.00008  -0.00008   7.19695
   R12        7.17355  -0.00002   0.00000   0.00021   0.00021   7.17375
   R13        2.05145   0.00007   0.00000   0.00003   0.00003   2.05147
   R14        2.05332   0.00001   0.00000   0.00008   0.00008   2.05340
   R15        6.16373  -0.00037   0.00000   0.00000   0.00000   6.16373
   R16        6.58125  -0.00023   0.00000  -0.00057  -0.00057   6.58067
   R17        6.39793  -0.00016   0.00000  -0.00045  -0.00045   6.39748
   R18        7.10713  -0.00026   0.00000  -0.00099  -0.00099   7.10614
   R19        2.30072  -0.00078   0.00000  -0.00109  -0.00109   2.29963
    A1        1.88885  -0.00002   0.00000  -0.00018  -0.00018   1.88866
    A2        1.88021   0.00005   0.00000  -0.00009  -0.00009   1.88012
    A3        1.93345  -0.00007   0.00000   0.00026   0.00026   1.93371
    A4        1.88117   0.00000   0.00000  -0.00008  -0.00008   1.88108
    A5        1.94135   0.00003   0.00000   0.00013   0.00013   1.94148
    A6        2.36757   0.00005   0.00000  -0.00015  -0.00015   2.36742
    A7        1.93656   0.00001   0.00000  -0.00006  -0.00006   1.93651
    A8        1.89739  -0.00005   0.00000  -0.00012  -0.00012   1.89728
    A9        2.37004  -0.00004   0.00000   0.00012   0.00012   2.37016
   A10        1.91808  -0.00003   0.00000  -0.00037  -0.00037   1.91771
   A11        1.89522  -0.00002   0.00000   0.00009   0.00009   1.89530
   A12        1.98262   0.00000   0.00000  -0.00017  -0.00017   1.98245
   A13        1.83082  -0.00002   0.00000  -0.00011  -0.00011   1.83071
   A14        1.91532   0.00002   0.00000   0.00014   0.00014   1.91546
   A15        1.91554   0.00005   0.00000   0.00044   0.00044   1.91598
   A16        2.92042  -0.00003   0.00000   0.00049   0.00049   2.92091
   A17        2.11396  -0.00003   0.00000   0.00003   0.00003   2.11399
   A18        2.10372  -0.00006   0.00000  -0.00011  -0.00011   2.10361
   A19        2.04920   0.00005   0.00000   0.00021   0.00021   2.04941
   A20        1.61719  -0.00022   0.00000   0.00008   0.00008   1.61727
   A21        0.57762  -0.00001   0.00000  -0.00001  -0.00001   0.57761
   A22        0.71372   0.00003   0.00000   0.00014   0.00014   0.71387
   A23        0.99989   0.00005   0.00000   0.00015   0.00015   1.00004
   A24        0.78247   0.00003   0.00000   0.00013   0.00013   0.78260
   A25        2.04861   0.00016   0.00000   0.00009   0.00009   2.04870
   A26        0.60833  -0.00001   0.00000   0.00007   0.00007   0.60840
   A27        0.72800  -0.00003   0.00000  -0.00001  -0.00001   0.72800
   A28        0.92782   0.00003   0.00000   0.00017   0.00017   0.92799
   A29        1.21389   0.00004   0.00000   0.00017   0.00017   1.21407
   A30        0.96952   0.00004   0.00000   0.00017   0.00017   0.96969
   A31        0.62202   0.00004   0.00000   0.00008   0.00008   0.62210
   A32        0.62475   0.00003   0.00000   0.00005   0.00005   0.62480
   A33        2.26425   0.00016   0.00000   0.00004   0.00004   2.26429
   A34        0.59481   0.00003   0.00000   0.00007   0.00007   0.59488
   A35        0.69393   0.00005   0.00000   0.00008   0.00008   0.69401
   A36        0.88338   0.00003   0.00000   0.00007   0.00007   0.88344
   A37        2.55397   0.00016   0.00000   0.00004   0.00004   2.55401
   A38        2.03887   0.00012   0.00000  -0.00002  -0.00002   2.03886
   A39        0.54658   0.00004   0.00000   0.00010   0.00010   0.54668
   A40        2.10855   0.00009   0.00000  -0.00001  -0.00001   2.10853
   A41        0.83050   0.00005   0.00000   0.00020   0.00020   0.83070
    D1        2.96948  -0.00005   0.00000   0.00036   0.00036   2.96984
    D2       -1.28418  -0.00003   0.00000   0.00012   0.00012  -1.28405
    D3        0.83689  -0.00002   0.00000   0.00016   0.00016   0.83705
    D4        1.08490  -0.00002   0.00000   0.00005   0.00005   1.08495
    D5        3.07838  -0.00007   0.00000  -0.00024  -0.00024   3.07814
    D6       -1.06834  -0.00002   0.00000   0.00027   0.00027  -1.06807
    D7       -1.01671   0.00003   0.00000   0.00002   0.00002  -1.01669
    D8        0.97677  -0.00002   0.00000  -0.00027  -0.00027   0.97650
    D9        3.11323   0.00003   0.00000   0.00024   0.00024   3.11347
   D10       -3.11071   0.00001   0.00000   0.00008   0.00008  -3.11064
   D11       -1.11724  -0.00004   0.00000  -0.00021  -0.00021  -1.11745
   D12        1.01923   0.00000   0.00000   0.00030   0.00030   1.01953
   D13        1.37758  -0.00002   0.00000   0.00058   0.00058   1.37816
   D14        2.37149   0.00001   0.00000   0.00056   0.00056   2.37205
   D15        2.18988  -0.00001   0.00000   0.00049   0.00049   2.19038
   D16        2.84318   0.00002   0.00000   0.00054   0.00054   2.84371
   D17       -2.16179   0.00004   0.00000   0.00048   0.00048  -2.16131
   D18       -2.39437  -0.00003   0.00000  -0.00018  -0.00018  -2.39454
   D19       -1.40045   0.00000   0.00000  -0.00020  -0.00020  -1.40065
   D20       -1.58206  -0.00001   0.00000  -0.00027  -0.00027  -1.58232
   D21       -0.92876   0.00001   0.00000  -0.00022  -0.00022  -0.92899
   D22        0.34945   0.00003   0.00000  -0.00028  -0.00028   0.34917
   D23        0.05540   0.00005   0.00000  -0.00012  -0.00012   0.05529
   D24        2.74859   0.00008   0.00000  -0.00103  -0.00103   2.74756
   D25       -0.59105  -0.00015   0.00000  -0.00024  -0.00024  -0.59128
   D26        0.59384   0.00010   0.00000  -0.00052  -0.00052   0.59331
   D27       -2.74580  -0.00012   0.00000   0.00027   0.00027  -2.74553
   D28       -1.40940   0.00009   0.00000  -0.00071  -0.00071  -1.41011
   D29        1.53415  -0.00014   0.00000   0.00008   0.00008   1.53423
   D30        2.38821   0.00006   0.00000  -0.00091  -0.00091   2.38730
   D31       -0.44733  -0.00002   0.00000  -0.00120  -0.00120  -0.44853
   D32        0.51390  -0.00001   0.00000  -0.00111  -0.00111   0.51278
   D33        1.10724  -0.00004   0.00000  -0.00121  -0.00121   1.10603
   D34        1.78772   0.00014   0.00000  -0.00022  -0.00022   1.78749
   D35       -1.54477  -0.00009   0.00000   0.00052   0.00052  -1.54425
   D36       -1.15453  -0.00004   0.00000   0.00001   0.00001  -1.15453
         Item               Value     Threshold  Converged?
 Maximum Force            0.000816     0.000450     NO 
 RMS     Force            0.000096     0.000300     YES
 Maximum Displacement     0.001402     0.001800     YES
 RMS     Displacement     0.000318     0.001200     YES
 Predicted change in Energy=-7.680198D-07
 GradGradGradGradGradGradGradGradGradGradGradGradGradGradGradGradGradGrad

 Leave Link  103 at Wed Apr  1 00:25:21 2015, MaxMem= 3758096384 cpu:       3.1
 (Enter /share/apps/g09/l202.exe)
                          Input orientation:                          
 ---------------------------------------------------------------------
 Center     Atomic      Atomic             Coordinates (Angstroms)
 Number     Number       Type             X           Y           Z
 ---------------------------------------------------------------------
      1          6           0       -1.653286   -1.168055    0.173495
      2          1           0       -0.640436   -1.517334   -0.054394
      3          1           0       -2.366158   -1.854614   -0.296599
      4          1           0       -1.792346   -1.232815    1.259496
      5          6           0       -1.857910    0.271085   -0.321481
      6          1           0       -1.745845    0.309942   -1.414332
      7          1           0       -2.908945    0.563220   -0.132682
      8          6           0       -0.938020    1.257342    0.314713
      9          1           0       -0.709113    2.202922   -0.166942
     10          1           0       -0.624247    1.132963    1.347573
     11          8           0        1.931885   -0.036084   -0.539346
     12          8           0        2.752474   -0.184980    0.346850
 ---------------------------------------------------------------------
                    Distance matrix (angstroms):
                    1          2          3          4          5
     1  C    0.000000
     2  H    1.095351   0.000000
     3  H    1.095691   1.774975   0.000000
     4  H    1.096781   1.770354   1.771249   0.000000
     5  C    1.535578   2.179913   2.185757   2.183004   0.000000
     6  H    2.171229   2.531856   2.513845   3.087332   1.099268
     7  H    2.160495   3.079118   2.483427   2.531935   1.107096
     8  C    2.532607   2.814893   3.478153   2.797029   1.491189
     9  H    3.517221   3.722591   4.384769   3.874585   2.252911
    10  H    2.780659   2.998307   3.829252   2.639909   2.247332
    11  O    3.826611   3.007676   4.673238   4.305566   3.808460
    12  O    4.517434   3.667152   5.422370   4.752502   4.680845
                    6          7          8          9         10
     6  H    0.000000
     7  H    1.749164   0.000000
     8  C    2.130667   2.136940   0.000000
     9  H    2.492822   2.743912   1.085592   0.000000
    10  H    3.092485   2.781296   1.086611   1.856279   0.000000
    11  O    3.796187   4.894709   3.261706   3.482342   3.385402
    12  O    4.856087   5.730743   3.962458   4.236584   3.760408
                   11         12
    11  O    0.000000
    12  O    1.216913   0.000000
 Stoichiometry    C3H7O2(2)
 Framework group  C1[X(C3H7O2)]
 Deg. of freedom    30
 Full point group                 C1      NOp   1
 Largest Abelian subgroup         C1      NOp   1
 Largest concise Abelian subgroup C1      NOp   1
                         Standard orientation:                         
 ---------------------------------------------------------------------
 Center     Atomic      Atomic             Coordinates (Angstroms)
 Number     Number       Type             X           Y           Z
 ---------------------------------------------------------------------
      1          6           0       -1.652895   -1.168300    0.173434
      2          1           0       -0.639984   -1.517399   -0.054456
      3          1           0       -2.365646   -1.854985   -0.296661
      4          1           0       -1.791944   -1.233084    1.259434
      5          6           0       -1.857775    0.270805   -0.321543
      6          1           0       -1.745717    0.309682   -1.414393
      7          1           0       -2.908862    0.562753   -0.132744
      8          6           0       -0.938059    1.257224    0.314652
      9          1           0       -0.709321    2.202845   -0.167003
     10          1           0       -0.624265    1.132901    1.347512
     11          8           0        1.932075   -0.035693   -0.539407
     12          8           0        2.752690   -0.184443    0.346788
 ---------------------------------------------------------------------
 Rotational constants (GHZ):      7.7025456      1.6794436      1.5012113
 Leave Link  202 at Wed Apr  1 00:25:21 2015, MaxMem= 3758096384 cpu:       0.3
 (Enter /share/apps/g09/l301.exe)
 Standard basis: 6-31G(d) (6D, 7F)
 Ernie: Thresh=  0.10000D-02 Tol=  0.10000D-05 Strict=F.
 There are    89 symmetry adapted basis functions of A   symmetry.
 Integral buffers will be    131072 words long.
 Raffenetti 2 integral format.
 Two-electron integral symmetry is turned on.
    89 basis functions,   168 primitive gaussians,    89 cartesian basis functions
    21 alpha electrons       20 beta electrons
       nuclear repulsion energy       156.3504177822 Hartrees.
 IExCor=  402 DFT=T Ex+Corr=B3LYP ExCW=0 ScaHFX=  0.200000
 ScaDFX=  0.800000  0.720000  1.000000  0.810000 ScalE2=  1.000000  1.000000
 IRadAn=      0 IRanWt=     -1 IRanGd=            0 ICorTp=0
 NAtoms=   12 NActive=   12 NUniq=   12 SFac= 7.50D-01 NAtFMM=   80 NAOKFM=F Big=F
 Leave Link  301 at Wed Apr  1 00:25:21 2015, MaxMem= 3758096384 cpu:       0.4
 (Enter /share/apps/g09/l302.exe)
 NPDir=0 NMtPBC=     1 NCelOv=     1 NCel=       1 NClECP=     1 NCelD=      1
         NCelK=      1 NCelE2=     1 NClLst=     1 CellRange=     0.0.
 One-electron integrals computed using PRISM.
 NBasis=    89 RedAO= T  NBF=    89
 NBsUse=    89 1.00D-06 NBFU=    89
 Precomputing XC quadrature grid using
 IXCGrd= 2 IRadAn=           0 IRanWt=          -1 IRanGd=           0 AccXCQ= 1.00D-10.
 NRdTot=     744 NPtTot=       94486 NUsed=       99863 NTot=       99895
 NSgBfM=    89    89    89    89    89 NAtAll=    12    12.
 Leave Link  302 at Wed Apr  1 00:25:22 2015, MaxMem= 3758096384 cpu:       5.3
 (Enter /share/apps/g09/l303.exe)
 DipDrv:  MaxL=1.
 Leave Link  303 at Wed Apr  1 00:25:22 2015, MaxMem= 3758096384 cpu:       1.0
 (Enter /share/apps/g09/l401.exe)
 Initial guess read from the read-write file.
 B after Tr=     0.000000    0.000000    0.000000
         Rot=    1.000000    0.000000    0.000000    0.000000 Ang=   0.00 deg.
 Guess basis will be translated and rotated to current coordinates.
 Initial guess orbital symmetries:
 Alpha Orbitals:
       Occupied  (A) (A) (A) (A) (A) (A) (A) (A) (A) (A) (A) (A)
                 (A) (A) (A) (A) (A) (A) (A) (A) (A)
       Virtual   (A) (A) (A) (A) (A) (A) (A) (A) (A) (A) (A) (A)
                 (A) (A) (A) (A) (A) (A) (A) (A) (A) (A) (A) (A)
                 (A) (A) (A) (A) (A) (A) (A) (A) (A) (A) (A) (A)
                 (A) (A) (A) (A) (A) (A) (A) (A) (A) (A) (A) (A)
                 (A) (A) (A) (A) (A) (A) (A) (A) (A) (A) (A) (A)
                 (A) (A) (A) (A) (A) (A) (A) (A)
 Beta  Orbitals:
       Occupied  (A) (A) (A) (A) (A) (A) (A) (A) (A) (A) (A) (A)
                 (A) (A) (A) (A) (A) (A) (A) (A)
       Virtual   (A) (A) (A) (A) (A) (A) (A) (A) (A) (A) (A) (A)
                 (A) (A) (A) (A) (A) (A) (A) (A) (A) (A) (A) (A)
                 (A) (A) (A) (A) (A) (A) (A) (A) (A) (A) (A) (A)
                 (A) (A) (A) (A) (A) (A) (A) (A) (A) (A) (A) (A)
                 (A) (A) (A) (A) (A) (A) (A) (A) (A) (A) (A) (A)
                 (A) (A) (A) (A) (A) (A) (A) (A) (A)
 The electronic state of the initial guess is 2-A.
 Initial guess <Sx>= 0.0000 <Sy>= 0.0000 <Sz>= 0.5000 <S**2>= 1.7235 S= 0.9048
 Leave Link  401 at Wed Apr  1 00:25:22 2015, MaxMem= 3758096384 cpu:       5.4
 (Enter /share/apps/g09/l502.exe)
 UHF open shell SCF:
 Requested convergence on RMS density matrix=1.00D-08 within 128 cycles.
 Requested convergence on MAX density matrix=1.00D-06.
 Requested convergence on             energy=1.00D-06.
 No special actions if energy rises.
 Using DIIS extrapolation, IDIIS=  1040.
 Integral symmetry usage will be decided dynamically.
        99742 words used for storage of precomputed grid.
 Keep R1 and R2 ints in memory in canonical form, NReq=17096935.
 IEnd=      143400 IEndB=      143400 NGot=  3758096384 MDV=  3741933577
 LenX=  3741933577 LenY=  3741925215
 Symmetry not used in FoFDir.
 MinBra= 0 MaxBra= 2 Meth= 1.
 IRaf=       0 NMat=   1 IRICut=       1 DoRegI=T DoRafI=F ISym2E= 0 JSym2E=0.

 Cycle   1  Pass 1  IDiag  1:
 E= -268.793123440462    
 DIIS: error= 9.74D-05 at cycle   1 NSaved=   1.
 NSaved= 1 IEnMin= 1 EnMin= -268.793123440462     IErMin= 1 ErrMin= 9.74D-05
 ErrMax= 9.74D-05 EMaxC= 1.00D-01 BMatC= 1.20D-06 BMatP= 1.20D-06
 IDIUse=1 WtCom= 1.00D+00 WtEn= 0.00D+00
 Coeff-Com:  0.100D+01
 Coeff:      0.100D+01
 Gap=     0.259 Goal=   None    Shift=    0.000
 Gap=     0.093 Goal=   None    Shift=    0.000
 RMSDP=7.75D-06 MaxDP=1.10D-04              OVMax= 2.63D-04

 Cycle   2  Pass 1  IDiag  1:
 E= -268.793123865824     Delta-E=       -0.000000425362 Rises=F Damp=F
 DIIS: error= 1.72D-05 at cycle   2 NSaved=   2.
 NSaved= 2 IEnMin= 2 EnMin= -268.793123865824     IErMin= 2 ErrMin= 1.72D-05
 ErrMax= 1.72D-05 EMaxC= 1.00D-01 BMatC= 3.68D-08 BMatP= 1.20D-06
 IDIUse=1 WtCom= 1.00D+00 WtEn= 0.00D+00
 Coeff-Com:  0.146D-01 0.985D+00
 Coeff:      0.146D-01 0.985D+00
 Gap=     0.259 Goal=   None    Shift=    0.000
 Gap=     0.093 Goal=   None    Shift=    0.000
 RMSDP=2.44D-06 MaxDP=4.03D-05 DE=-4.25D-07 OVMax= 1.80D-04

 Cycle   3  Pass 1  IDiag  1:
 E= -268.793123871486     Delta-E=       -0.000000005662 Rises=F Damp=F
 DIIS: error= 1.04D-05 at cycle   3 NSaved=   3.
 NSaved= 3 IEnMin= 3 EnMin= -268.793123871486     IErMin= 3 ErrMin= 1.04D-05
 ErrMax= 1.04D-05 EMaxC= 1.00D-01 BMatC= 2.81D-08 BMatP= 3.68D-08
 IDIUse=1 WtCom= 1.00D+00 WtEn= 0.00D+00
 Coeff-Com: -0.310D-01 0.468D+00 0.563D+00
 Coeff:     -0.310D-01 0.468D+00 0.563D+00
 Gap=     0.259 Goal=   None    Shift=    0.000
 Gap=     0.093 Goal=   None    Shift=    0.000
 RMSDP=8.95D-07 MaxDP=2.01D-05 DE=-5.66D-09 OVMax= 3.84D-05

 Cycle   4  Pass 1  IDiag  1:
 E= -268.793123876600     Delta-E=       -0.000000005114 Rises=F Damp=F
 DIIS: error= 6.15D-06 at cycle   4 NSaved=   4.
 NSaved= 4 IEnMin= 4 EnMin= -268.793123876600     IErMin= 4 ErrMin= 6.15D-06
 ErrMax= 6.15D-06 EMaxC= 1.00D-01 BMatC= 4.31D-09 BMatP= 2.81D-08
 IDIUse=1 WtCom= 1.00D+00 WtEn= 0.00D+00
 Coeff-Com: -0.202D-01 0.258D+00 0.356D+00 0.407D+00
 Coeff:     -0.202D-01 0.258D+00 0.356D+00 0.407D+00
 Gap=     0.259 Goal=   None    Shift=    0.000
 Gap=     0.093 Goal=   None    Shift=    0.000
 RMSDP=2.80D-07 MaxDP=9.54D-06 DE=-5.11D-09 OVMax= 1.76D-05

 Cycle   5  Pass 1  IDiag  1:
 E= -268.793123877252     Delta-E=       -0.000000000652 Rises=F Damp=F
 DIIS: error= 2.72D-06 at cycle   5 NSaved=   5.
 NSaved= 5 IEnMin= 5 EnMin= -268.793123877252     IErMin= 5 ErrMin= 2.72D-06
 ErrMax= 2.72D-06 EMaxC= 1.00D-01 BMatC= 8.63D-10 BMatP= 4.31D-09
 IDIUse=1 WtCom= 1.00D+00 WtEn= 0.00D+00
 Coeff-Com: -0.261D-02 0.177D-01 0.448D-01 0.303D+00 0.638D+00
[...]
     Eigenvalues --- 1000.000001000.000001000.000001000.000001000.00000
     Eigenvalues --- 1000.000001000.000001000.000001000.000001000.00000
     Eigenvalues --- 1000.000001000.000001000.000001000.000001000.00000
     Eigenvalues --- 1000.000001000.000001000.000001000.000001000.00000
     Eigenvalues --- 1000.000001000.000001000.000001000.000001000.00000
     Eigenvalues --- 1000.000001000.000001000.000001000.000001000.00000
     Eigenvalues --- 1000.000001000.000001000.000001000.000001000.00000
     Eigenvalues --- 1000.000001000.000001000.000001000.000001000.00000
     Eigenvalues --- 1000.000001000.000001000.000001000.000001000.00000
     Eigenvalues --- 1000.000001000.000001000.000001000.000001000.00000
     Eigenvalues --- 1000.000001000.000001000.000001000.000001000.00000
     Eigenvalues --- 1000.000001000.000001000.000001000.000001000.00000
     Eigenvalues --- 1000.000001000.000001000.000001000.000001000.00000
     Eigenvalues --- 1000.00000
 Quadratic step=3.639D-01 exceeds max=3.000D-01 adjusted using Lamda=-1.632D-05.
 Angle between NR and scaled steps=   7.35 degrees.
 Angle between quadratic step and forces=  76.67 degrees.
 Linear search not attempted -- first point.
 Iteration  1 RMS(Cart)=  0.01801892 RMS(Int)=  0.00120922
 Iteration  2 RMS(Cart)=  0.00045264 RMS(Int)=  0.00028662
 Iteration  3 RMS(Cart)=  0.00000117 RMS(Int)=  0.00028662
 Iteration  4 RMS(Cart)=  0.00000000 RMS(Int)=  0.00028662
 Iteration  1 RMS(Cart)=  0.00000175 RMS(Int)=  0.00000480
 Iteration  2 RMS(Cart)=  0.00000118 RMS(Int)=  0.00000530
 Iteration  3 RMS(Cart)=  0.00000080 RMS(Int)=  0.00000610
 Variable       Old X    -DE/DX   Delta X   Delta X   Delta X     New X
                                 (Linear)    (Quad)   (Total)
    R1        2.06991   0.00000   0.00000  -0.00003   0.00021   2.07012
    R2        2.07056   0.00000   0.00000   0.00003   0.00003   2.07059
    R3        2.07262   0.00001   0.00000   0.00003   0.00003   2.07265
    R4        2.90182   0.00000   0.00000   0.00017   0.00021   2.90203
    R5        7.23125  -0.00004   0.00000  -0.11976  -0.11963   7.11161
    R6        5.68368  -0.00002   0.00000  -0.14738  -0.14711   5.53657
    R7        6.92991  -0.00001   0.00000  -0.13324  -0.13329   6.79662
    R8        2.07732  -0.00001   0.00000  -0.00006  -0.00006   2.07726
    R9        2.09211  -0.00001   0.00000  -0.00003  -0.00003   2.09208
   R10        2.81794   0.00011   0.00000   0.00004   0.00025   2.81818
   R11        7.19695  -0.00016   0.00000  -0.05681  -0.05698   7.13996
   R12        7.17375  -0.00006   0.00000  -0.04687  -0.04729   7.12647
   R13        2.05147   0.00006   0.00000   0.00000   0.00024   2.05171
   R14        2.05340   0.00001   0.00000  -0.00001  -0.00016   2.05323
   R15        6.16373  -0.00039   0.00000   0.00000   0.00002   6.16375
   R16        6.58067  -0.00024   0.00000   0.04138   0.04077   6.62145
   R17        6.39748  -0.00020   0.00000   0.00085   0.00129   6.39877
   R18        7.10614  -0.00015   0.00000   0.00480   0.00501   7.11115
   R19        2.29963  -0.00010   0.00000  -0.00021  -0.00033   2.29930
    A1        1.88866   0.00001   0.00000   0.00009   0.00002   1.88868
    A2        1.88012   0.00000   0.00000  -0.00009  -0.00021   1.87992
    A3        1.93371  -0.00004   0.00000  -0.00013  -0.00008   1.93363
    A4        1.88108   0.00000   0.00000   0.00003  -0.00011   1.88098
    A5        1.94148   0.00001   0.00000   0.00001   0.00020   1.94168
    A6        2.36742   0.00003   0.00000  -0.01156  -0.01189   2.35552
    A7        1.93651   0.00003   0.00000   0.00009   0.00017   1.93667
    A8        1.89728  -0.00003   0.00000  -0.00012   0.00006   1.89734
    A9        2.37016  -0.00002   0.00000   0.01822   0.01826   2.38842
   A10        1.91771   0.00002   0.00000  -0.00004  -0.00004   1.91767
   A11        1.89530  -0.00002   0.00000  -0.00041   0.00065   1.89595
   A12        1.98245  -0.00003   0.00000  -0.00007  -0.00007   1.98238
   A13        1.83071  -0.00003   0.00000   0.00013  -0.00070   1.83001
   A14        1.91546   0.00000   0.00000  -0.00009  -0.00018   1.91527
   A15        1.91598   0.00005   0.00000   0.00050   0.00031   1.91629
   A16        2.92091  -0.00003   0.00000   0.01970   0.01895   2.93986
   A17        2.11399  -0.00004   0.00000   0.00036   0.00023   2.11422
   A18        2.10361  -0.00004   0.00000   0.00006   0.00024   2.10385
   A19        2.04941   0.00004   0.00000   0.00009   0.00004   2.04944
   A20        1.61727  -0.00011   0.00000  -0.00091  -0.00112   1.61616
   A21        0.57761   0.00001   0.00000   0.00702   0.00703   0.58465
   A22        0.71387   0.00002   0.00000   0.01057   0.01045   0.72432
   A23        1.00004   0.00004   0.00000   0.00794   0.00781   1.00785
   A24        0.78260   0.00002   0.00000   0.01025   0.01019   0.79279
   A25        2.04870   0.00005   0.00000   0.00371   0.00362   2.05233
   A26        0.60840   0.00001   0.00000   0.00475   0.00472   0.61312
   A27        0.72800   0.00000   0.00000   0.00686   0.00691   0.73490
   A28        0.92799   0.00003   0.00000   0.01033   0.01018   0.93817
   A29        1.21407   0.00004   0.00000   0.00758   0.00744   1.22150
   A30        0.96969   0.00002   0.00000   0.01084   0.01070   0.98038
   A31        0.62210   0.00003   0.00000   0.00278   0.00269   0.62479
   A32        0.62480   0.00003   0.00000   0.00423   0.00424   0.62904
   A33        2.26429   0.00007   0.00000   0.00502   0.00496   2.26925
   A34        0.59488   0.00002   0.00000   0.00389   0.00390   0.59878
   A35        0.69401   0.00003   0.00000   0.00141   0.00134   0.69535
   A36        0.88344   0.00003   0.00000   0.00423   0.00423   0.88768
   A37        2.55401   0.00007   0.00000   0.00735   0.00728   2.56129
   A38        2.03886   0.00005   0.00000   0.00177   0.00166   2.04052
   A39        0.54668   0.00004   0.00000  -0.00212  -0.00213   0.54454
   A40        2.10853   0.00005   0.00000  -0.00007  -0.00006   2.10847
   A41        0.83070   0.00001   0.00000   0.00816   0.00805   0.83875
    D1        2.96984   0.00000   0.00000   0.01912   0.01939   2.98923
    D2       -1.28405   0.00000   0.00000   0.01915   0.01916  -1.26489
    D3        0.83705   0.00001   0.00000   0.01913   0.01918   0.85623
    D4        1.08495   0.00002   0.00000   0.00035   0.00045   1.08540
    D5        3.07814  -0.00001   0.00000   0.00025  -0.00005   3.07809
    D6       -1.06807   0.00002   0.00000   0.00055   0.00078  -1.06729
    D7       -1.01669   0.00003   0.00000   0.00031   0.00035  -1.01634
    D8        0.97650   0.00000   0.00000   0.00022  -0.00015   0.97635
    D9        3.11347   0.00003   0.00000   0.00052   0.00068   3.11415
   D10       -3.11064   0.00001   0.00000   0.00022   0.00025  -3.11039
   D11       -1.11745  -0.00002   0.00000   0.00012  -0.00026  -1.11770
   D12        1.01953   0.00001   0.00000   0.00042   0.00057   1.02010
   D13        1.37816  -0.00002   0.00000   0.02075   0.02049   1.39865
   D14        2.37205   0.00000   0.00000   0.01397   0.01396   2.38601
   D15        2.19038  -0.00001   0.00000   0.01551   0.01538   2.20576
   D16        2.84371   0.00001   0.00000   0.00861   0.00864   2.85235
   D17       -2.16131   0.00003   0.00000   0.01608   0.01602  -2.14529
   D18       -2.39454  -0.00002   0.00000  -0.00228  -0.00241  -2.39696
   D19       -1.40065   0.00000   0.00000  -0.00906  -0.00895  -1.40960
   D20       -1.58232  -0.00001   0.00000  -0.00752  -0.00752  -1.58985
   D21       -0.92899   0.00001   0.00000  -0.01442  -0.01427  -0.94325
   D22        0.34917   0.00003   0.00000  -0.00695  -0.00688   0.34229
   D23        0.05529   0.00001   0.00000  -0.01978  -0.01982   0.03547
   D24        2.74756   0.00011   0.00000  -0.00771  -0.00777   2.73979
   D25       -0.59128  -0.00012   0.00000  -0.00464  -0.00465  -0.59593
   D26        0.59331   0.00009   0.00000  -0.00753  -0.00752   0.58579
   D27       -2.74553  -0.00013   0.00000  -0.00446  -0.00440  -2.74994
   D28       -1.41011   0.00009   0.00000  -0.00792  -0.00675  -1.41686
   D29        1.53423  -0.00013   0.00000  -0.00485  -0.00363   1.53060
   D30        2.38730   0.00000   0.00000  -0.07030  -0.07078   2.31652
   D31       -0.44853  -0.00002   0.00000  -0.07203  -0.07224  -0.52077
   D32        0.51278   0.00000   0.00000  -0.08108  -0.08118   0.43160
   D33        1.10603   0.00001   0.00000  -0.07686  -0.07702   1.02901
   D34        1.78749   0.00013   0.00000  -0.02647  -0.02636   1.76113
   D35       -1.54425  -0.00010   0.00000  -0.02348  -0.02334  -1.56758
   D36       -1.15453  -0.00002   0.00000   0.00886   0.00902  -1.14551
         Item               Value     Threshold  Converged?
 Maximum Force            0.000140     0.000450     YES
 RMS     Force            0.000018     0.000300     YES
 Maximum Displacement     0.069216     0.001800     NO 
 RMS     Displacement     0.018375     0.001200     NO 
 Predicted change in Energy=-6.855444D-06
 GradGradGradGradGradGradGradGradGradGradGradGradGradGradGradGradGradGrad

 Leave Link  103 at Wed Apr  1 00:26:04 2015, MaxMem= 3758096384 cpu:       0.8
 (Enter /share/apps/g09/l9999.exe)
 1\1\GINC-COMPUTE-0-14\Freq\UB3LYP\6-31G(d)\C3H7O2(2)\HETANJIN\01-Apr-2
 015\0\\#P Geom=AllCheck Guess=TCheck SCRF=Check GenChk UB3LYP/6-31G(d)
  Freq\\C3H7O2_62_b3631gd using cbs-qb3 to calculate energy\\0,2\C,-1.6
 53285521,-1.1680552915,0.1734948408\H,-0.6404360751,-1.5173338008,-0.0
 543943364\H,-2.3661577497,-1.8546139233,-0.2965993698\H,-1.7923460023,
 -1.2328154696,1.2594955434\C,-1.857910141,0.271085396,-0.3214814166\H,
 -1.7458450007,0.3099424083,-1.4143316656\H,-2.9089448185,0.5632200537,
 -0.1326824237\C,-0.9380197259,1.2573420816,0.3147130719\H,-0.709113389
 4,2.2029215577,-0.1669421781\H,-0.6242470532,1.1329628031,1.3475730047
 \O,1.9318852982,-0.0360842309,-0.5393457208\O,2.7524741786,-0.18497958
 44,0.3468496502\\Version=EM64L-G09RevA.01\State=2-A\HF=-268.7931239\S2
 =1.723681\S2-1=0.\S2A=0.782587\RMSD=2.475e-09\RMSF=2.839e-04\ZeroPoint
 =0.093137\Thermal=0.1012955\Dipole=-0.2275287,0.0256406,-0.0219776\Dip
 oleDeriv=0.1113525,-0.0108679,0.0043196,0.0296995,0.0549218,0.0182829,
 -0.0508126,-0.0127917,0.121135,-0.1066259,0.0946143,0.03512,0.0473933,
 0.0117968,0.008632,0.041796,0.001716,0.0405355,-0.0394598,-0.1061059,-
 0.0654911,-0.1017216,-0.0821246,-0.0374581,-0.065277,-0.0540513,0.0188
 135,0.0531511,0.0078303,0.0189139,0.0123006,0.023737,-0.002208,0.03110
 29,0.042229,-0.1638616,0.0620682,-0.046863,-0.0539378,0.00782,0.106658
 5,0.0276844,-0.0225085,0.0177323,0.1086674,0.0569643,-0.010201,0.01582
 76,-0.0532607,-0.0081171,0.0092634,-0.0146938,0.0232146,-0.174689,-0.2
 079605,0.0524979,0.0073318,-0.017394,-0.0173683,-0.0128577,0.0022913,-
 0.0095912,0.0504969,-0.2057457,0.1834551,0.1272051,0.2679167,-0.020668
 8,-0.0990639,0.2167531,-0.0835353,0.0920971,0.083208,-0.0692654,-0.028
 7795,-0.0772718,-0.0967834,0.0454309,-0.0266428,0.0548568,0.0134917,0.
 0741992,-0.0474747,-0.0527197,-0.0390323,0.028958,0.0383272,-0.0645187
 ,0.0065817,-0.0888912,0.5703309,-0.1714935,-0.0510941,-0.1574251,0.036
 7404,0.0116938,0.4167053,-0.1195892,-0.0515219,-0.4514823,0.1238739,0.
 0433041,0.0809755,-0.0377504,-0.007727,-0.4641953,0.1332283,0.0337265\
 Polar=62.6917549,-3.939261,40.2204579,4.2827582,-0.5440602,38.5413013\
 PG=C01 [X(C3H7O2)]\NImag=1\\0.57946338,0.01539831,0.48707113,-0.002241
 05,0.03444258,0.56361936,-0.27785496,0.07540676,0.05278024,0.29976724,
 0.07414115,-0.07383086,-0.01827311,-0.08364449,0.08057328,0.05291007,-
 0.01863896,-0.06315488,-0.05791924,0.01747252,0.06316690,-0.16381186,-
 0.10698336,-0.07540573,-0.01856926,-0.01927153,-0.01440023,0.17353238,
 -0.10590370,-0.14907866,-0.07103481,0.00654367,0.00733966,0.00590969,0
 .11691497,0.16285718,-0.07517642,-0.07185258,-0.09991565,0.00525983,0.
 00606704,0.00320069,0.08367057,0.07684462,0.10396806,-0.05505439,-0.00
 180721,0.03416703,-0.00266476,-0.00181880,0.03176171,0.00343111,0.0021
 2057,-0.02268318,0.05331102,-0.00185298,-0.04919316,0.01038105,0.00020
 405,-0.00015940,-0.01032897,0.00432621,0.00116433,-0.02053032,0.000911
 35,0.05337223,0.03397150,0.01122166,-0.30516650,0.00066206,-0.00021238
 ,-0.00587984,0.00219406,0.00044741,-0.01319814,-0.03703882,-0.01451444
 ,0.33183670,-0.07725037,0.01967770,-0.00602336,-0.00257979,0.02914562,
 -0.01128550,0.00396526,-0.02042211,0.00825373,-0.00000991,-0.00482564,
 0.00125109,0.48617687,0.01603829,-0.17392157,0.03226432,0.00127486,-0.
 01130502,0.00414451,0.00496444,-0.01865765,0.00843284,0.00031925,-0.00
 235028,0.00105090,0.00057538,0.46268480,-0.00674400,0.03378002,-0.0958
 8867,0.00032365,-0.00735550,0.00223759,0.00362296,-0.01515615,0.005124
 93,-0.00595578,0.03370924,-0.01050704,-0.00586961,0.00071113,0.5606644
 8,-0.00001696,-0.00004403,-0.00526235,0.00014477,-0.00038906,-0.000597
 85,0.00000013,-0.00029435,0.00044287,0.00072821,0.00090633,-0.00077846
 ,-0.04818959,-0.00033021,0.02942735,0.05500901,-0.00442314,-0.00161130
 ,0.03285526,0.00015772,0.00136983,-0.00066201,-0.00044531,0.00113191,-
 0.00050306,0.00119124,-0.00639729,0.00221729,-0.00044450,-0.05142661,0
 .00636472,0.00308171,0.05571382,0.00121572,0.00097660,-0.00915455,-0.0
 0052550,-0.00011394,0.00045801,0.00032505,0.00033806,0.00052612,-0.000
 42947,0.00205342,0.00104863,0.02955322,0.00856395,-0.29650844,-0.02989
 931,-0.00859206,0.32428742,-0.00431993,0.00202334,0.00127808,0.0012251
 2,0.00076983,-0.00057304,0.00059731,0.00038112,0.00012968,0.00019833,-
 0.00013452,-0.00050516,-0.25037165,0.06620937,0.04574214,-0.00499103,0
 .00189585,0.00270665,0.28096494,0.03185918,-0.01188103,-0.00538563,0.0
 0066377,-0.00630865,0.00285349,-0.00034503,0.00133345,-0.00085957,-0.0
 0052205,0.00146598,0.00006980,0.05213593,-0.05840714,-0.01051818,-0.00
 041971,0.00065629,0.00000131,-0.06372031,0.07060317,-0.01082386,0.0049
 2410,0.00201672,-0.00063476,0.00223557,0.00016439,0.00040265,-0.000646
 38,0.00015118,-0.00051258,-0.00059931,0.00046175,0.03749015,-0.0107077
 1,-0.05365363,0.03251484,-0.00880042,-0.00764942,-0.04421626,0.0124521
 3,0.05666073,0.00055366,-0.00399995,0.00298081,0.00089039,0.00100230,0
 .00003105,0.00054404,0.00131485,-0.00054216,0.00026146,0.00091192,-0.0
 0055725,-0.11421971,-0.07659491,-0.05248066,-0.00138445,0.00030268,-0.
 00227999,-0.02251391,-0.02116108,-0.01504718,0.22151871,-0.02252597,-0
 .02845177,-0.01167023,-0.00087356,0.00238339,-0.00071065,0.00054507,-0
 .00507678,0.00171114,-0.00024250,0.00185923,-0.00099551,-0.07204128,-0
 .14146647,-0.03319605,-0.00004428,0.00209063,-0.00047085,-0.00620695,0
 .00359668,0.00179517,0.17620208,0.48613660,0.00862020,0.00523773,0.007
 68637,-0.00022695,0.00053487,0.00011109,-0.00057253,0.00429328,-0.0006
 2828,0.00095347,0.00103613,0.00066565,-0.05056235,-0.03502203,-0.11218
 359,-0.02459893,-0.02189889,-0.01412603,-0.00377547,0.00202462,0.00235
 375,0.14768498,-0.11993307,0.54041655,-0.00263542,-0.00016372,-0.00278
 335,0.00014739,-0.00007215,-0.00006821,0.00054237,-0.00103288,0.000442
 37,-0.00014061,0.00008907,0.00013128,0.00205180,-0.01617089,0.01133923
 ,0.00051179,0.00084180,-0.00063702,-0.00044047,0.00107180,-0.00015831,
 -0.03748541,-0.06593050,0.01088516,0.03287058,-0.00339141,-0.00128050,
 -0.00211320,0.00010467,0.00014111,-0.00001661,0.00016904,-0.00114294,0
 .00038865,0.00005359,0.00020129,0.00008728,0.00066093,-0.00963552,0.00
 884691,0.00056498,0.00063205,-0.00001205,-0.00050050,-0.00072168,0.000
 11672,-0.07054181,-0.26886334,0.12347461,0.07398842,0.27966429,-0.0019
 6691,-0.00145279,-0.00079358,0.00006795,0.00005489,-0.00010097,-0.0000
 4001,-0.00089550,0.00045869,-0.00017132,-0.00031676,0.00034874,-0.0025
 5246,-0.01219034,0.00779879,0.00096200,0.00027496,0.00124636,-0.000580
 15,-0.00040842,0.00013566,0.01353223,0.12097319,-0.11057368,-0.0152795
 8,-0.12949442,0.10878104,0.00082220,0.00076861,0.00036048,-0.00003473,
 -0.00000295,0.00014175,-0.00015173,0.00024736,0.00017835,-0.00000508,-
 0.00052766,0.00065780,0.00015523,0.00397728,-0.01932925,-0.00187373,-0
 .00231671,-0.00016239,-0.00047866,0.00018645,0.00088451,-0.04829081,-0
 .00816764,-0.08784557,0.00465209,-0.00108295,0.00593351,0.04528141,0.0
 0067797,0.00222042,-0.00136154,0.00022851,-0.00027644,-0.00005586,0.00
 017389,0.00016585,0.00028338,-0.00019014,0.00002219,0.00060481,-0.0042
 7392,0.00443140,-0.01727658,-0.00300054,-0.00209506,-0.00268607,-0.000
 63572,-0.00022057,-0.00070985,-0.00720296,-0.05226520,0.04003563,0.007
 25725,0.00097466,0.02355981,0.00689253,0.04705927,0.00028201,0.0012482
 7,0.00073097,0.00012837,-0.00039147,-0.00009348,0.00016869,-0.00005762
 ,0.00031915,-0.00009403,-0.00087920,0.00037988,0.00003002,0.00265056,-
 0.00710161,-0.00221000,-0.00121887,-0.00014525,-0.00015027,-0.00011108
 ,-0.00062403,-0.09320762,0.04226954,-0.31314480,-0.00379540,-0.0013091
 7,-0.00730333,0.09894610,-0.04226250,0.32692357,0.00038974,-0.00085121
 ,0.00061690,-0.00048582,0.00047787,0.00019375,-0.00015772,0.00049694,-
 0.00001632,-0.00004184,-0.00002762,-0.00009049,0.00211001,-0.00086348,
 -0.00037855,-0.00006182,0.00064173,0.00028496,0.00051554,0.00116236,0.
 00046911,0.00060014,-0.00266730,-0.00119136,0.00021459,-0.00024472,0.0
 0006604,0.00002056,0.00007332,-0.00056898,0.36044448,-0.00004665,0.000
 05862,-0.00020313,-0.00003112,-0.00000555,0.00003638,-0.00005047,-0.00
 009697,0.00002587,-0.00002707,0.00002413,0.00004597,-0.00060144,0.0001
 8704,0.00017418,-0.00000546,-0.00014366,-0.00007998,-0.00016005,-0.000
 28474,-0.00013312,-0.00033664,0.00035459,0.00014133,0.00004514,0.00008
 782,-0.00010156,0.00005508,-0.00003522,0.00014350,-0.06408900,0.012112
 14,0.00021505,-0.00045206,0.00054181,0.00003196,0.00036285,0.00000590,
 -0.00002026,0.00034642,-0.00005052,0.00002193,-0.00005353,-0.00009650,
 0.00138521,-0.00047392,-0.00026164,-0.00012826,0.00051289,0.00025039,0
 .00032294,0.00078550,0.00037943,0.00029825,-0.00191920,-0.00229566,0.0
 0010398,-0.00013840,0.00001128,0.00063897,-0.00026978,-0.00045539,0.39
 182015,-0.06977676,0.43035303,-0.00028508,0.00057475,-0.00046770,0.000
 01440,-0.00033779,-0.00019425,0.00007797,-0.00036644,0.00004067,-0.000
 01353,0.00001947,0.00010240,-0.00183815,0.00060062,0.00030251,0.000123
 68,-0.00048308,-0.00015192,-0.00038558,-0.00091129,-0.00036831,-0.0004
 7411,0.00195283,0.00062936,-0.00028870,0.00021976,0.00002871,-0.000096
 73,-0.00000020,0.00047112,-0.36354787,0.06524767,-0.39468993,0.3667136
 9,0.00002894,-0.00010133,0.00009843,-0.00003484,0.00007863,-0.00000353
 ,0.00000207,0.00006061,-0.00000799,0.00001177,-0.00000924,-0.00002279,
 0.00041333,-0.00013299,-0.00008373,-0.00002537,0.00007939,0.00002160,0
 .00007853,0.00016825,0.00007310,0.00010352,-0.00029756,0.00007579,0.00
 007663,-0.00005723,-0.00000305,-0.00002939,0.00001870,-0.00008196,0.06
 589110,-0.01225820,0.07107598,-0.06651631,0.01245097,-0.00026232,0.000
 56544,-0.00052138,0.00005241,-0.00038136,-0.00011540,0.00005478,-0.000
 38901,0.00004378,-0.00001896,0.00004268,0.00010668,-0.00167015,0.00057
 579,0.00027885,0.00012810,-0.00054981,-0.00023323,-0.00037913,-0.00090
 397,-0.00039651,-0.00041246,0.00214653,0.00171864,-0.00018014,0.000169
 67,-0.00000898,-0.00040426,0.00013855,0.00051433,-0.39120520,0.0697273
 2,-0.42838212,0.39429734,-0.07114184,0.42699536\\0.00001243,-0.0000094
 9,0.00000429,-0.00004299,-0.00001359,0.00000343,-0.00000688,0.00001020
 ,0.00000653,-0.00001011,0.00000690,-0.00000629,0.00000513,-0.00005690,
 0.00000767,0.00000023,-0.00000487,0.00000645,0.00000044,0.00004904,-0.
 00000410,-0.00106969,0.00044300,0.00029999,-0.00001502,0.00000253,0.00
 000652,-0.00001637,0.00000987,0.00000483,0.00101278,-0.00041999,-0.000
 47098,0.00013005,-0.00001670,0.00014167\\\@


 IF YOU GIVE A BOY AND A PIG EVERYTHING THEY WANT,
 YOU'LL GET A BAD BOY AND A GOOD PIG.
 Job cpu time:  0 days  0 hours  5 minutes 49.8 seconds.
 File lengths (MBytes):  RWF=     29 Int=      0 D2E=      0 Chk=      3 Scr=      1
 Normal termination of Gaussian 09 at Wed Apr  1 00:26:05 2015.
