 Entering Gaussian System, Link 0=/share/apps/g09/g09
 Input=C3H7O2_62_b3631gd_316.gjf
 Output=C3H7O2_62_b3631gd_316.log
 Initial command:
 /share/apps/g09/l1.exe /state/partition1/Gau-31162.inp -scrdir=/state/partition1/
 Entering Link 1 = /share/apps/g09/l1.exe PID=     31163.
  
 Copyright (c) 1988,1990,1992,1993,1995,1998,2003,2009, Gaussian, Inc.
                  All Rights Reserved.
  
 This is part of the Gaussian(R) 09 program.  It is based on
 the Gaussian(R) 03 system (copyright 2003, Gaussian, Inc.),
 the Gaussian(R) 98 system (copyright 1998, Gaussian, Inc.),
 the Gaussian(R) 94 system (copyright 1995, Gaussian, Inc.),
 the Gaussian 92(TM) system (copyright 1992, Gaussian, Inc.),
 the Gaussian 90(TM) system (copyright 1990, Gaussian, Inc.),
 the Gaussian 88(TM) system (copyright 1988, Gaussian, Inc.),
 the Gaussian 86(TM) system (copyright 1986, Carnegie Mellon
 University), and the Gaussian 82(TM) system (copyright 1983,
 Carnegie Mellon University). Gaussian is a federally registered
 trademark of Gaussian, Inc.
  
 This software contains proprietary and confidential information,
 including trade secrets, belonging to Gaussian, Inc.
  
 This software is provided under written license and may be
 used, copied, transmitted, or stored only in accord with that
 written license.
  
 The following legend is applicable only to US Government
 contracts under FAR:
  
                    RESTRICTED RIGHTS LEGEND
  
 Use, reproduction and disclosure by the US Government is
 subject to restrictions as set forth in subparagraphs (a)
 and (c) of the Commercial Computer Software - Restricted
 Rights clause in FAR 52.227-19.
  
 Gaussian, Inc.
 340 Quinnipiac St., Bldg. 40, Wallingford CT 06492
  
  
 ---------------------------------------------------------------
 Warning -- This program may not be used in any manner that
 competes with the business of Gaussian, Inc. or will provide
 assistance to any competitor of Gaussian, Inc.  The licensee
 of this program is prohibited from giving any competitor of
 Gaussian, Inc. access to this program.  By using this program,
 the user acknowledges that Gaussian, Inc. is engaged in the
 business of creating and licensing software in the field of
 computational chemistry and represents and warrants to the
 licensee that it is not a competitor of Gaussian, Inc. and that
 it will not use this program in any manner prohibited above.
 ---------------------------------------------------------------
  

 Cite this work as:
 Gaussian 09, Revision A.01,
 M. J. Frisch, G. W. Trucks, H. B. Schlegel, G. E. Scuseria, 
 M. A. Robb, J. R. Cheeseman, G. Scalmani, V. Barone, B. Mennucci, 
 G. A. Petersson, H. Nakatsuji, M. Caricato, X. Li, H. P. Hratchian, 
 A. F. Izmaylov, J. Bloino, G. Zheng, J. L. Sonnenberg, M. Hada, 
 M. Ehara, K. Toyota, R. Fukuda, J. Hasegawa, M. Ishida, T. Nakajima, 
 Y. Honda, O. Kitao, H. Nakai, T. Vreven, J. A. Montgomery, Jr., 
 J. E. Peralta, F. Ogliaro, M. Bearpark, J. J. Heyd, E. Brothers, 
 K. N. Kudin, V. N. Staroverov, R. Kobayashi, J. Normand, 
 K. Raghavachari, A. Rendell, J. C. Burant, S. S. Iyengar, J. Tomasi, 
 M. Cossi, N. Rega, J. M. Millam, M. Klene, J. E. Knox, J. B. Cross, 
 V. Bakken, C. Adamo, J. Jaramillo, R. Gomperts, R. E. Stratmann, 
 O. Yazyev, A. J. Austin, R. Cammi, C. Pomelli, J. W. Ochterski, 
 R. L. Martin, K. Morokuma, V. G. Zakrzewski, G. A. Voth, 
 P. Salvador, J. J. Dannenberg, S. Dapprich, A. D. Daniels, 
 O. Farkas, J. B. Foresman, J. V. Ortiz, J. Cioslowski, 
 and D. J. Fox, Gaussian, Inc., Wallingford CT, 2009.
 
 ******************************************
 Gaussian 09:  EM64L-G09RevA.01  8-May-2009
                 1-Apr-2015 
 ******************************************
 %mem=28GB
 %nprocshared=12
 Will use up to   12 processors via shared memory.
 %chk=C3H7O2_62_b3631gd_316.chk
 ----------------------------------------
 #p ub3lyp/6-31g(d) opt=modredundant freq
 ----------------------------------------
 1/14=-1,18=120,19=15,26=3,38=1/1,3;
 2/9=110,12=2,17=6,18=5,40=1/2;
 3/5=1,6=6,7=1,11=2,16=1,25=1,30=1,71=1,74=-5,116=2/1,2,3;
 4//1;
 5/5=2,38=5/2;
 6/7=2,8=2,9=2,10=2,28=1/1;
 7//1,2,3,16;
 1/14=-1,18=20,19=15/3(2);
 2/9=110/2;
 99//99;
 2/9=110/2;
 3/5=1,6=6,7=1,11=2,16=1,25=1,30=1,71=1,74=-5,116=2/1,2,3;
 4/5=5,16=3/1;
 5/5=2,38=5/2;
 7//1,2,3,16;
 1/14=-1,18=20,19=15/3(-5);
 2/9=110/2;
 6/7=2,8=2,9=2,10=2,19=2,28=1/1;
 99/9=1/99;
 Leave Link    1 at Wed Apr  1 00:24:19 2015, MaxMem= 3758096384 cpu:       0.5
 (Enter /share/apps/g09/l101.exe)
 ---------------------------------------------------
 C3H7O2_62_b3631gd using cbs-qb3 to calculate energy
 ---------------------------------------------------
 Symbolic Z-matrix:
 Charge =  0 Multiplicity = 2
 C                    -1.67982  -1.15086   0.16914 
 H                    -0.68351  -1.54104  -0.06451 
 H                    -2.42273  -1.80405  -0.30186 
 H                    -1.81767  -1.21536   1.2553 
 C                    -1.82541   0.29809  -0.3178 
 H                    -1.71535   0.33884  -1.41078 
 H                    -2.86238   0.63359  -0.12367 
 C                    -0.86421   1.24215   0.3204 
 H                    -0.60727   2.1851   -0.15214 
 H                    -0.54806   1.09646   1.34965 
 O                     1.89159  -0.0472   -0.53955 
 O                     2.71761  -0.20652   0.34175 
 
 NAtoms=     12 NQM=     12 NQMF=      0 NMic=      0 NMicF=      0 NTot=     12.
 The following ModRedundant input section has been read:
 B    8   11 F                                                                 
                    Isotopes and Nuclear Properties:
 (Nuclear quadrupole moments (NQMom) in fm**2, nuclear magnetic moments (NMagM)
  in nuclear magnetons)

  Atom         1           2           3           4           5           6           7           8           9          10
 IAtWgt=          12           1           1           1          12           1           1          12           1           1
 AtmWgt=  12.0000000   1.0078250   1.0078250   1.0078250  12.0000000   1.0078250   1.0078250  12.0000000   1.0078250   1.0078250
 NucSpn=           0           1           1           1           0           1           1           0           1           1
 AtZEff=   0.0000000   0.0000000   0.0000000   0.0000000   0.0000000   0.0000000   0.0000000   0.0000000   0.0000000   0.0000000
 NQMom=    0.0000000   0.0000000   0.0000000   0.0000000   0.0000000   0.0000000   0.0000000   0.0000000   0.0000000   0.0000000
 NMagM=    0.0000000   2.7928460   2.7928460   2.7928460   0.0000000   2.7928460   2.7928460   0.0000000   2.7928460   2.7928460

  Atom        11          12
 IAtWgt=          16          16
 AtmWgt=  15.9949146  15.9949146
 NucSpn=           0           0
 AtZEff=   0.0000000   0.0000000
 NQMom=    0.0000000   0.0000000
 NMagM=    0.0000000   0.0000000
 Leave Link  101 at Wed Apr  1 00:24:19 2015, MaxMem= 3758096384 cpu:       0.8
 (Enter /share/apps/g09/l103.exe)

 GradGradGradGradGradGradGradGradGradGradGradGradGradGradGradGradGradGrad
 Berny optimization.
 Initialization pass.
                           ----------------------------
                           !    Initial Parameters    !
                           ! (Angstroms and Degrees)  !
 --------------------------                            --------------------------
 ! Name  Definition              Value          Derivative Info.                !
 --------------------------------------------------------------------------------
 ! R1    R(1,2)                  1.0952         estimate D2E/DX2                !
 ! R2    R(1,3)                  1.0956         estimate D2E/DX2                !
 ! R3    R(1,4)                  1.0968         estimate D2E/DX2                !
 ! R4    R(1,5)                  1.5355         estimate D2E/DX2                !
 ! R5    R(1,11)                 3.8046         estimate D2E/DX2                !
 ! R6    R(2,11)                 3.0147         estimate D2E/DX2                !
 ! R7    R(2,12)                 3.6761         estimate D2E/DX2                !
 ! R8    R(5,6)                  1.0993         estimate D2E/DX2                !
 ! R9    R(5,7)                  1.1071         estimate D2E/DX2                !
 ! R10   R(5,8)                  1.4908         estimate D2E/DX2                !
 ! R11   R(5,11)                 3.7396         estimate D2E/DX2                !
 ! R12   R(6,11)                 3.7307         estimate D2E/DX2                !
 ! R13   R(8,9)                  1.0856         estimate D2E/DX2                !
 ! R14   R(8,10)                 1.0865         estimate D2E/DX2                !
 ! R15   R(8,11)                 3.1617         Frozen                          !
 ! R16   R(8,12)                 3.8637         estimate D2E/DX2                !
 ! R17   R(9,11)                 3.3731         estimate D2E/DX2                !
 ! R18   R(10,11)                3.2907         estimate D2E/DX2                !
 ! R19   R(10,12)                3.6576         estimate D2E/DX2                !
 ! R20   R(11,12)                1.2183         estimate D2E/DX2                !
 ! A1    A(2,1,3)              108.2242         estimate D2E/DX2                !
 ! A2    A(2,1,4)              107.7383         estimate D2E/DX2                !
 ! A3    A(2,1,5)              110.7798         estimate D2E/DX2                !
 ! A4    A(3,1,4)              107.7846         estimate D2E/DX2                !
 ! A5    A(3,1,5)              111.2199         estimate D2E/DX2                !
 ! A6    A(3,1,11)             136.8332         estimate D2E/DX2                !
 ! A7    A(4,1,5)              110.9548         estimate D2E/DX2                !
 ! A8    A(4,1,11)             108.6336         estimate D2E/DX2                !
 ! A9    A(1,2,12)             133.5313         estimate D2E/DX2                !
 ! A10   A(1,5,6)              109.9255         estimate D2E/DX2                !
 ! A11   A(1,5,7)              108.6136         estimate D2E/DX2                !
 ! A12   A(1,5,8)              113.6205         estimate D2E/DX2                !
 ! A13   A(6,5,7)              104.886          estimate D2E/DX2                !
 ! A14   A(6,5,8)              109.732          estimate D2E/DX2                !
 ! A15   A(7,5,8)              109.6916         estimate D2E/DX2                !
 ! A16   A(7,5,11)             165.7946         estimate D2E/DX2                !
 ! A17   A(5,8,9)              121.0864         estimate D2E/DX2                !
 ! A18   A(5,8,10)             120.5457         estimate D2E/DX2                !
 ! A19   A(5,8,12)             111.2626         estimate D2E/DX2                !
 ! A20   A(9,8,10)             117.3832         estimate D2E/DX2                !
 ! A21   A(9,8,12)              96.2388         estimate D2E/DX2                !
 ! A22   A(1,11,6)              33.4836         estimate D2E/DX2                !
 ! A23   A(1,11,8)              41.3614         estimate D2E/DX2                !
 ! A24   A(1,11,9)              58.343          estimate D2E/DX2                !
 ! A25   A(1,11,10)             45.4087         estimate D2E/DX2                !
 ! A26   A(1,11,12)            117.629          estimate D2E/DX2                !
 ! A27   A(2,11,5)              35.6476         estimate D2E/DX2                !
 ! A28   A(2,11,6)              42.4576         estimate D2E/DX2                !
 ! A29   A(2,11,8)              54.1751         estimate D2E/DX2                !
 ! A30   A(2,11,9)              71.1575         estimate D2E/DX2                !
 ! A31   A(2,11,10)             56.5288         estimate D2E/DX2                !
 ! A32   A(5,11,9)              36.46           estimate D2E/DX2                !
 ! A33   A(5,11,10)             36.5801         estimate D2E/DX2                !
 ! A34   A(5,11,12)            130.0208         estimate D2E/DX2                !
 ! A35   A(6,11,8)              34.7762         estimate D2E/DX2                !
 ! A36   A(6,11,9)              40.7195         estimate D2E/DX2                !
 ! A37   A(6,11,10)             51.7809         estimate D2E/DX2                !
 ! A38   A(6,11,12)            146.9239         estimate D2E/DX2                !
 ! A39   A(9,11,10)             32.3101         estimate D2E/DX2                !
 ! A40   A(9,11,12)            120.3798         estimate D2E/DX2                !
 ! A41   A(2,12,8)              43.7644         estimate D2E/DX2                !
 ! A42   A(2,12,10)             48.2195         estimate D2E/DX2                !
 ! D1    D(3,1,2,12)           168.9597         estimate D2E/DX2                !
 ! D2    D(4,1,2,12)           -74.7486         estimate D2E/DX2                !
 ! D3    D(5,1,2,12)            46.7843         estimate D2E/DX2                !
 ! D4    D(2,1,5,6)             62.1295         estimate D2E/DX2                !
 ! D5    D(2,1,5,7)            176.3612         estimate D2E/DX2                !
 ! D6    D(2,1,5,8)            -61.2708         estimate D2E/DX2                !
 ! D7    D(3,1,5,6)            -58.2787         estimate D2E/DX2                !
 ! D8    D(3,1,5,7)             55.9529         estimate D2E/DX2                !
 ! D9    D(3,1,5,8)            178.321          estimate D2E/DX2                !
 ! D10   D(4,1,5,6)           -178.2492         estimate D2E/DX2                !
 ! D11   D(4,1,5,7)            -64.0175         estimate D2E/DX2                !
 ! D12   D(4,1,5,8)             58.3505         estimate D2E/DX2                !
 ! D13   D(3,1,11,6)            76.836          estimate D2E/DX2                !
 ! D14   D(3,1,11,8)           134.4275         estimate D2E/DX2                !
 ! D15   D(3,1,11,9)           123.8515         estimate D2E/DX2                !
 ! D16   D(3,1,11,10)          161.9983         estimate D2E/DX2                !
 ! D17   D(3,1,11,12)         -125.7915         estimate D2E/DX2                !
 ! D18   D(4,1,11,6)          -136.9979         estimate D2E/DX2                !
 ! D19   D(4,1,11,8)           -79.4064         estimate D2E/DX2                !
 ! D20   D(4,1,11,9)           -89.9824         estimate D2E/DX2                !
 ! D21   D(4,1,11,10)          -51.8356         estimate D2E/DX2                !
 ! D22   D(4,1,11,12)           20.3746         estimate D2E/DX2                !
 ! D23   D(1,2,12,8)           -17.4821         estimate D2E/DX2                !
 ! D24   D(1,2,12,10)            4.4243         estimate D2E/DX2                !
 ! D25   D(1,5,8,9)            158.1705         estimate D2E/DX2                !
 ! D26   D(1,5,8,10)           -33.4786         estimate D2E/DX2                !
 ! D27   D(1,5,8,12)            46.407          estimate D2E/DX2                !
 ! D28   D(6,5,8,9)             34.6646         estimate D2E/DX2                !
 ! D29   D(6,5,8,10)          -156.9845         estimate D2E/DX2                !
 ! D30   D(6,5,8,12)           -77.0989         estimate D2E/DX2                !
 ! D31   D(7,5,8,9)            -80.0589         estimate D2E/DX2                !
 ! D32   D(7,5,8,10)            88.2919         estimate D2E/DX2                !
 ! D33   D(7,5,8,12)           168.1775         estimate D2E/DX2                !
 ! D34   D(7,5,11,2)           140.4008         estimate D2E/DX2                !
 ! D35   D(7,5,11,9)           -22.2608         estimate D2E/DX2                !
 ! D36   D(7,5,11,10)           33.4889         estimate D2E/DX2                !
 ! D37   D(7,5,11,12)           66.2951         estimate D2E/DX2                !
 ! D38   D(5,8,12,2)           -18.3487         estimate D2E/DX2                !
 ! D39   D(9,8,12,2)          -145.2104         estimate D2E/DX2                !
 --------------------------------------------------------------------------------
 Trust Radius=3.00D-01 FncErr=1.00D-07 GrdErr=1.00D-06
 Number of steps in this run= 100 maximum allowed number of steps= 100.
 GradGradGradGradGradGradGradGradGradGradGradGradGradGradGradGradGradGrad

 Leave Link  103 at Wed Apr  1 00:24:19 2015, MaxMem= 3758096384 cpu:       0.1
 (Enter /share/apps/g09/l202.exe)
                          Input orientation:                          
 ---------------------------------------------------------------------
 Center     Atomic      Atomic             Coordinates (Angstroms)
 Number     Number       Type             X           Y           Z
 ---------------------------------------------------------------------
      1          6           0       -1.679818   -1.150860    0.169141
      2          1           0       -0.683509   -1.541037   -0.064513
      3          1           0       -2.422734   -1.804046   -0.301860
      4          1           0       -1.817673   -1.215361    1.255295
      5          6           0       -1.825407    0.298087   -0.317800
      6          1           0       -1.715353    0.338837   -1.410782
      7          1           0       -2.862382    0.633594   -0.123673
      8          6           0       -0.864212    1.242146    0.320396
      9          1           0       -0.607273    2.185101   -0.152137
     10          1           0       -0.548059    1.096459    1.349653
     11          8           0        1.891594   -0.047199   -0.539549
     12          8           0        2.717606   -0.206523    0.341748
 ---------------------------------------------------------------------
                    Distance matrix (angstroms):
                    1          2          3          4          5
     1  C    0.000000
     2  H    1.095200   0.000000
     3  H    1.095636   1.774940   0.000000
     4  H    1.096766   1.770391   1.771265   0.000000
     5  C    1.535498   2.179556   2.185410   2.182937   0.000000
     6  H    2.171777   2.532009   2.514367   3.087712   1.099264
     7  H    2.160665   3.078962   2.483371   2.532115   1.107053
     8  C    2.532700   2.815478   3.477856   2.796867   1.490784
     9  H    3.518836   3.727948   4.385386   3.874155   2.252136
    10  H    2.779376   2.995763   3.828163   2.639192   2.247090
    11  O    3.804641   3.014692   4.664379   4.283075   3.739584
    12  O    4.500989   3.676079   5.421200   4.735090   4.618290
                    6          7          8          9         10
     6  H    0.000000
     7  H    1.749059   0.000000
     8  C    2.130114   2.135466   0.000000
     9  H    2.494137   2.737426   1.085573   0.000000
    10  H    3.091370   2.782270   1.086530   1.855807   0.000000
    11  O    3.730702   4.820448   3.161706   3.373068   3.290736
    12  O    4.797906   5.662038   3.863744   4.125362   3.657623
                   11         12
    11  O    0.000000
    12  O    1.218345   0.000000
 Stoichiometry    C3H7O2(2)
 Framework group  C1[X(C3H7O2)]
 Deg. of freedom    30
 Full point group                 C1      NOp   1
 Largest Abelian subgroup         C1      NOp   1
 Largest concise Abelian subgroup C1      NOp   1
                         Standard orientation:                         
 ---------------------------------------------------------------------
 Center     Atomic      Atomic             Coordinates (Angstroms)
 Number     Number       Type             X           Y           Z
 ---------------------------------------------------------------------
      1          6           0       -1.679818   -1.150860    0.169141
      2          1           0       -0.683509   -1.541037   -0.064513
      3          1           0       -2.422734   -1.804046   -0.301860
      4          1           0       -1.817673   -1.215361    1.255295
      5          6           0       -1.825407    0.298087   -0.317800
      6          1           0       -1.715353    0.338837   -1.410782
      7          1           0       -2.862382    0.633594   -0.123673
      8          6           0       -0.864212    1.242146    0.320396
      9          1           0       -0.607273    2.185101   -0.152137
     10          1           0       -0.548059    1.096459    1.349653
     11          8           0        1.891594   -0.047199   -0.539549
     12          8           0        2.717606   -0.206523    0.341748
 ---------------------------------------------------------------------
 Rotational constants (GHZ):      7.8086534      1.7235611      1.5398464
 Leave Link  202 at Wed Apr  1 00:24:19 2015, MaxMem= 3758096384 cpu:       0.2
 (Enter /share/apps/g09/l301.exe)
 Standard basis: 6-31G(d) (6D, 7F)
 Ernie: Thresh=  0.10000D-02 Tol=  0.10000D-05 Strict=F.
 There are    89 symmetry adapted basis functions of A   symmetry.
 Integral buffers will be    131072 words long.
 Raffenetti 2 integral format.
 Two-electron integral symmetry is turned on.
    89 basis functions,   168 primitive gaussians,    89 cartesian basis functions
    21 alpha electrons       20 beta electrons
       nuclear repulsion energy       157.1809211773 Hartrees.
 IExCor=  402 DFT=T Ex+Corr=B3LYP ExCW=0 ScaHFX=  0.200000
 ScaDFX=  0.800000  0.720000  1.000000  0.810000 ScalE2=  1.000000  1.000000
 IRadAn=      0 IRanWt=     -1 IRanGd=            0 ICorTp=0
 NAtoms=   12 NActive=   12 NUniq=   12 SFac= 7.50D-01 NAtFMM=   80 NAOKFM=F Big=F
 Leave Link  301 at Wed Apr  1 00:24:19 2015, MaxMem= 3758096384 cpu:       0.5
 (Enter /share/apps/g09/l302.exe)
 NPDir=0 NMtPBC=     1 NCelOv=     1 NCel=       1 NClECP=     1 NCelD=      1
         NCelK=      1 NCelE2=     1 NClLst=     1 CellRange=     0.0.
 One-electron integrals computed using PRISM.
 NBasis=    89 RedAO= T  NBF=    89
 NBsUse=    89 1.00D-06 NBFU=    89
 Precomputing XC quadrature grid using
 IXCGrd= 2 IRadAn=           0 IRanWt=          -1 IRanGd=           0 AccXCQ= 1.00D-10.
 NRdTot=     744 NPtTot=       94340 NUsed=       99717 NTot=       99749
 NSgBfM=    89    89    89    89    89 NAtAll=    12    12.
 Leave Link  302 at Wed Apr  1 00:24:20 2015, MaxMem= 3758096384 cpu:       2.4
 (Enter /share/apps/g09/l303.exe)
 DipDrv:  MaxL=1.
 Leave Link  303 at Wed Apr  1 00:24:20 2015, MaxMem= 3758096384 cpu:       0.3
 (Enter /share/apps/g09/l401.exe)
 Harris functional with IExCor=  402 diagonalized for initial guess.
 ExpMin= 1.61D-01 ExpMax= 5.48D+03 ExpMxC= 8.25D+02 IAcc=1 IRadAn=         1 AccDes= 0.00D+00
 HarFok:  IExCor=  402 AccDes= 0.00D+00 IRadAn=         1 IDoV= 1
 ScaDFX=  1.000000  1.000000  1.000000  1.000000
 FoFCou: FMM=F IPFlag=           0 FMFlag=      100000 FMFlg1=           0
         NFxFlg=           0 DoJE=T BraDBF=F KetDBF=T FulRan=T
         Omega=  0.000000  0.000000  1.000000  0.000000  0.000000 ICntrl=     500 IOpCl=  0
         NMat0=    1 NMatS0=    1 NMatT0=    0 NMatD0=    1 NMtDS0=    0 NMtDT0=    0
         I1Cent=           4 NGrid=           0.
 Petite list used in FoFCou.
 Harris En= -268.811227889251    
 Initial guess orbital symmetries:
 Alpha Orbitals:
       Occupied  (A) (A) (A) (A) (A) (A) (A) (A) (A) (A) (A) (A)
                 (A) (A) (A) (A) (A) (A) (A) (A) (A)
       Virtual   (A) (A) (A) (A) (A) (A) (A) (A) (A) (A) (A) (A)
                 (A) (A) (A) (A) (A) (A) (A) (A) (A) (A) (A) (A)
                 (A) (A) (A) (A) (A) (A) (A) (A) (A) (A) (A) (A)
                 (A) (A) (A) (A) (A) (A) (A) (A) (A) (A) (A) (A)
                 (A) (A) (A) (A) (A) (A) (A) (A) (A) (A) (A) (A)
                 (A) (A) (A) (A) (A) (A) (A) (A)
 Beta  Orbitals:
       Occupied  (A) (A) (A) (A) (A) (A) (A) (A) (A) (A) (A) (A)
                 (A) (A) (A) (A) (A) (A) (A) (A)
       Virtual   (A) (A) (A) (A) (A) (A) (A) (A) (A) (A) (A) (A)
                 (A) (A) (A) (A) (A) (A) (A) (A) (A) (A) (A) (A)
                 (A) (A) (A) (A) (A) (A) (A) (A) (A) (A) (A) (A)
                 (A) (A) (A) (A) (A) (A) (A) (A) (A) (A) (A) (A)
                 (A) (A) (A) (A) (A) (A) (A) (A) (A) (A) (A) (A)
                 (A) (A) (A) (A) (A) (A) (A) (A) (A)
 The electronic state of the initial guess is 2-A.
 Initial guess <Sx>= 0.0000 <Sy>= 0.0000 <Sz>= 0.5000 <S**2>= 0.7500 S= 0.5000
 Leave Link  401 at Wed Apr  1 00:24:20 2015, MaxMem= 3758096384 cpu:       2.5
 (Enter /share/apps/g09/l502.exe)
 UHF open shell SCF:
 Requested convergence on RMS density matrix=1.00D-08 within 128 cycles.
 Requested convergence on MAX density matrix=1.00D-06.
 Requested convergence on             energy=1.00D-06.
 No special actions if energy rises.
 Using DIIS extrapolation, IDIIS=  1040.
 Integral symmetry usage will be decided dynamically.
        99596 words used for storage of precomputed grid.
 Keep R1 and R2 ints in memory in canonical form, NReq=17096789.
 IEnd=      143254 IEndB=      143254 NGot=  3758096384 MDV=  3741933723
 LenX=  3741933723 LenY=  3741925361
 Symmetry not used in FoFDir.
 MinBra= 0 MaxBra= 2 Meth= 1.
 IRaf=       0 NMat=   1 IRICut=       1 DoRegI=T DoRafI=F ISym2E= 0 JSym2E=0.
 Integral accuracy reduced to 1.0D-05 until final iterations.

 Cycle   1  Pass 0  IDiag  1:
 E= -268.119645176604    
 DIIS: error= 7.12D-02 at cycle   1 NSaved=   1.
 NSaved= 1 IEnMin= 1 EnMin= -268.119645176604     IErMin= 1 ErrMin= 7.12D-02
 ErrMax= 7.12D-02 EMaxC= 1.00D-01 BMatC= 1.47D+00 BMatP= 1.47D+00
 IDIUse=3 WtCom= 2.88D-01 WtEn= 7.12D-01
 Coeff-Com:  0.100D+01
 Coeff-En:   0.100D+01
 Coeff:      0.100D+01
 Gap=     0.170 Goal=   None    Shift=    0.000
 Gap=    -0.682 Goal=   None    Shift=    0.000
 GapD=   -0.682 DampG=0.250 DampE=0.500 DampFc=0.2500 IDamp=-1.
 Damping current iteration by 2.50D-01
 RMSDP=3.71D-02 MaxDP=5.21D-01              OVMax= 9.98D-01

 Cycle   2  Pass 0  IDiag  1:
 E= -268.120968463406     Delta-E=       -0.001323286802 Rises=F Damp=T
 DIIS: error= 3.23D-02 at cycle   2 NSaved=   2.
 NSaved= 2 IEnMin= 2 EnMin= -268.120968463406     IErMin= 2 ErrMin= 3.23D-02
 ErrMax= 3.23D-02 EMaxC= 1.00D-01 BMatC= 2.47D-01 BMatP= 1.47D+00
 IDIUse=3 WtCom= 6.77D-01 WtEn= 3.23D-01
 Coeff-Com:  0.162D+00 0.838D+00
 Coeff-En:   0.499D+00 0.501D+00
 Coeff:      0.271D+00 0.729D+00
 Gap=    -0.004 Goal=   None    Shift=    0.000
 Gap=     0.063 Goal=   None    Shift=    0.000
 RMSDP=1.26D-02 MaxDP=1.88D-01 DE=-1.32D-03 OVMax= 9.70D-01

 Cycle   3  Pass 0  IDiag  1:
 E= -268.460319041172     Delta-E=       -0.339350577766 Rises=F Damp=F
 DIIS: error= 4.11D-02 at cycle   3 NSaved=   3.
 NSaved= 3 IEnMin= 3 EnMin= -268.460319041172     IErMin= 2 ErrMin= 3.23D-02
 ErrMax= 4.11D-02 EMaxC= 1.00D-01 BMatC= 6.29D-01 BMatP= 2.47D-01
 IDIUse=2 WtCom= 0.00D+00 WtEn= 1.00D+00
 Coeff-En:   0.381D+00 0.000D+00 0.619D+00
 Coeff:      0.381D+00 0.000D+00 0.619D+00
 Gap=     0.016 Goal=   None    Shift=    0.000
 Gap=     0.093 Goal=   None    Shift=    0.000
 RMSDP=9.00D-03 MaxDP=1.87D-01 DE=-3.39D-01 OVMax= 7.14D-01

 Cycle   4  Pass 0  IDiag  1:
 E= -268.660230078632     Delta-E=       -0.199911037460 Rises=F Damp=F
 DIIS: error= 6.10D-02 at cycle   4 NSaved=   4.
 NSaved= 4 IEnMin= 4 EnMin= -268.660230078632     IErMin= 2 ErrMin= 3.23D-02
 ErrMax= 6.10D-02 EMaxC= 1.00D-01 BMatC= 2.70D-01 BMatP= 2.47D-01
 IDIUse=3 WtCom= 3.90D-01 WtEn= 6.10D-01
 Coeff-Com:  0.944D-01 0.175D+00 0.339D+00 0.392D+00
 Coeff-En:   0.000D+00 0.000D+00 0.320D+00 0.680D+00
 Coeff:      0.368D-01 0.683D-01 0.327D+00 0.568D+00
 Gap=     0.045 Goal=   None    Shift=    0.000
 Gap=     0.037 Goal=   None    Shift=    0.000
 RMSDP=5.18D-03 MaxDP=1.08D-01 DE=-2.00D-01 OVMax= 4.59D-01

 Cycle   5  Pass 0  IDiag  1:
 E= -268.726960167543     Delta-E=       -0.066730088911 Rises=F Damp=F
 DIIS: error= 3.81D-02 at cycle   5 NSaved=   5.
 NSaved= 5 IEnMin= 5 EnMin= -268.726960167543     IErMin= 2 ErrMin= 3.23D-02
 ErrMax= 3.81D-02 EMaxC= 1.00D-01 BMatC= 9.08D-02 BMatP= 2.47D-01
 IDIUse=3 WtCom= 6.19D-01 WtEn= 3.81D-01
 Coeff-Com:  0.387D-02-0.389D-01 0.936D-01 0.389D+00 0.552D+00
 Coeff-En:   0.000D+00 0.000D+00 0.000D+00 0.315D+00 0.685D+00
 Coeff:      0.239D-02-0.241D-01 0.579D-01 0.361D+00 0.603D+00
 Gap=     0.074 Goal=   None    Shift=    0.000
 Gap=     0.046 Goal=   None    Shift=    0.000
 RMSDP=4.19D-03 MaxDP=1.01D-01 DE=-6.67D-02 OVMax= 4.44D-01

 Cycle   6  Pass 0  IDiag  1:
 E= -268.769749301178     Delta-E=       -0.042789133634 Rises=F Damp=F
 DIIS: error= 2.21D-02 at cycle   6 NSaved=   6.
 NSaved= 6 IEnMin= 6 EnMin= -268.769749301178     IErMin= 6 ErrMin= 2.21D-02
 ErrMax= 2.21D-02 EMaxC= 1.00D-01 BMatC= 3.78D-02 BMatP= 9.08D-02
 IDIUse=3 WtCom= 7.79D-01 WtEn= 2.21D-01
 Coeff-Com: -0.877D-02 0.277D-01 0.573D-01 0.155D+00 0.354D+00 0.415D+00
 Coeff-En:   0.000D+00 0.000D+00 0.000D+00 0.000D+00 0.101D+00 0.899D+00
 Coeff:     -0.683D-02 0.216D-01 0.446D-01 0.121D+00 0.298D+00 0.522D+00
 Gap=     0.128 Goal=   None    Shift=    0.000
 Gap=     0.079 Goal=   None    Shift=    0.000
 RMSDP=1.66D-03 MaxDP=2.32D-02 DE=-4.28D-02 OVMax= 1.61D-01

 Cycle   7  Pass 0  IDiag  1:
 E= -268.787487973536     Delta-E=       -0.017738672358 Rises=F Damp=F
 DIIS: error= 7.82D-03 at cycle   7 NSaved=   7.
 NSaved= 7 IEnMin= 7 EnMin= -268.787487973536     IErMin= 7 ErrMin= 7.82D-03
 ErrMax= 7.82D-03 EMaxC= 1.00D-01 BMatC= 8.41D-03 BMatP= 3.78D-02
 IDIUse=3 WtCom= 9.22D-01 WtEn= 7.82D-02
 Coeff-Com: -0.409D-02 0.567D-01 0.560D-01 0.243D-01 0.959D-01 0.250D+00
 Coeff-Com:  0.521D+00
 Coeff-En:   0.000D+00 0.000D+00 0.000D+00 0.000D+00 0.000D+00 0.000D+00
 Coeff-En:   0.100D+01
 Coeff:     -0.377D-02 0.523D-01 0.516D-01 0.224D-01 0.884D-01 0.230D+00
 Coeff:      0.559D+00
 Gap=     0.163 Goal=   None    Shift=    0.000
 Gap=     0.097 Goal=   None    Shift=    0.000
 RMSDP=1.07D-03 MaxDP=1.69D-02 DE=-1.77D-02 OVMax= 9.75D-02

 Cycle   8  Pass 0  IDiag  1:
 E= -268.789809137317     Delta-E=       -0.002321163781 Rises=F Damp=F
 DIIS: error= 6.47D-03 at cycle   8 NSaved=   8.
 NSaved= 8 IEnMin= 8 EnMin= -268.789809137317     IErMin= 8 ErrMin= 6.47D-03
 ErrMax= 6.47D-03 EMaxC= 1.00D-01 BMatC= 1.12D-02 BMatP= 8.41D-03
 IDIUse=3 WtCom= 9.22D-01 WtEn= 7.82D-02
 Coeff-Com: -0.686D-02 0.129D-01 0.623D-01 0.104D+00-0.841D-02-0.583D+00
 Coeff-Com:  0.466D+00 0.954D+00
 Coeff-En:   0.000D+00 0.000D+00 0.000D+00 0.000D+00 0.000D+00 0.000D+00
 Coeff-En:   0.000D+00 0.100D+01
 Coeff:     -0.632D-02 0.119D-01 0.575D-01 0.955D-01-0.775D-02-0.537D+00
 Coeff:      0.429D+00 0.957D+00
 Gap=     0.222 Goal=   None    Shift=    0.000
 Gap=     0.098 Goal=   None    Shift=    0.000
 RMSDP=7.41D-04 MaxDP=1.04D-02 DE=-2.32D-03 OVMax= 4.97D-02

 Cycle   9  Pass 0  IDiag  1:
 E= -268.792992165605     Delta-E=       -0.003183028288 Rises=F Damp=F
 DIIS: error= 2.23D-03 at cycle   9 NSaved=   9.
 NSaved= 9 IEnMin= 9 EnMin= -268.792992165605     IErMin= 9 ErrMin= 2.23D-03
 ErrMax= 2.23D-03 EMaxC= 1.00D-01 BMatC= 1.48D-03 BMatP= 8.41D-03
 IDIUse=3 WtCom= 9.78D-01 WtEn= 2.23D-02
 Coeff-Com: -0.116D-01 0.215D-02 0.172D-01 0.865D-01 0.759D-01-0.211D+00
 Coeff-Com: -0.221D+00 0.298D+00 0.965D+00
 Coeff-En:   0.000D+00 0.000D+00 0.000D+00 0.000D+00 0.000D+00 0.000D+00
 Coeff-En:   0.000D+00 0.000D+00 0.100D+01
 Coeff:     -0.113D-01 0.210D-02 0.168D-01 0.846D-01 0.742D-01-0.207D+00
 Coeff:     -0.216D+00 0.291D+00 0.966D+00
 Gap=     0.236 Goal=   None    Shift=    0.000
 Gap=     0.093 Goal=   None    Shift=    0.000
 RMSDP=1.82D-04 MaxDP=2.91D-03 DE=-3.18D-03 OVMax= 5.68D-03

 Cycle  10  Pass 0  IDiag  1:
 E= -268.793312850138     Delta-E=       -0.000320684533 Rises=F Damp=F
 DIIS: error= 1.44D-03 at cycle  10 NSaved=  10.
 NSaved=10 IEnMin=10 EnMin= -268.793312850138     IErMin=10 ErrMin= 1.44D-03
 ErrMax= 1.44D-03 EMaxC= 1.00D-01 BMatC= 3.56D-04 BMatP= 1.48D-03
 IDIUse=3 WtCom= 9.86D-01 WtEn= 1.44D-02
 Coeff-Com: -0.621D-02 0.245D-02-0.406D-03 0.351D-01 0.554D-01 0.186D-01
 Coeff-Com: -0.262D+00-0.114D+00 0.478D+00 0.793D+00
 Coeff-En:   0.000D+00 0.000D+00 0.000D+00 0.000D+00 0.000D+00 0.000D+00
 Coeff-En:   0.000D+00 0.000D+00 0.000D+00 0.100D+01
 Coeff:     -0.612D-02 0.241D-02-0.400D-03 0.346D-01 0.546D-01 0.183D-01
 Coeff:     -0.258D+00-0.112D+00 0.471D+00 0.796D+00
 Gap=     0.247 Goal=   None    Shift=    0.000
 Gap=     0.092 Goal=   None    Shift=    0.000
 RMSDP=9.90D-05 MaxDP=1.73D-03 DE=-3.21D-04 OVMax= 3.47D-03

 Cycle  11  Pass 0  IDiag  1:
 E= -268.793403074484     Delta-E=       -0.000090224347 Rises=F Damp=F
 DIIS: error= 4.43D-04 at cycle  11 NSaved=  11.
 NSaved=11 IEnMin=11 EnMin= -268.793403074484     IErMin=11 ErrMin= 4.43D-04
 ErrMax= 4.43D-04 EMaxC= 1.00D-01 BMatC= 4.12D-05 BMatP= 3.56D-04
 IDIUse=3 WtCom= 9.96D-01 WtEn= 4.43D-03
 Coeff-Com: -0.917D-03 0.127D-02-0.169D-02 0.467D-02 0.681D-02 0.228D-01
 Coeff-Com: -0.735D-01-0.876D-01-0.744D-02 0.196D+00 0.939D+00
 Coeff-En:   0.000D+00 0.000D+00 0.000D+00 0.000D+00 0.000D+00 0.000D+00
 Coeff-En:   0.000D+00 0.000D+00 0.000D+00 0.000D+00 0.100D+01
 Coeff:     -0.913D-03 0.126D-02-0.168D-02 0.465D-02 0.678D-02 0.227D-01
 Coeff:     -0.732D-01-0.872D-01-0.741D-02 0.195D+00 0.940D+00
 Gap=     0.256 Goal=   None    Shift=    0.000
 Gap=     0.094 Goal=   None    Shift=    0.000
 RMSDP=7.03D-05 MaxDP=1.15D-03 DE=-9.02D-05 OVMax= 3.12D-03

 Cycle  12  Pass 0  IDiag  1:
 E= -268.793419304893     Delta-E=       -0.000016230409 Rises=F Damp=F
 DIIS: error= 6.23D-05 at cycle  12 NSaved=  12.
 NSaved=12 IEnMin=12 EnMin= -268.793419304893     IErMin=12 ErrMin= 6.23D-05
 ErrMax= 6.23D-05 EMaxC= 1.00D-01 BMatC= 9.77D-07 BMatP= 4.12D-05
 IDIUse=1 WtCom= 1.00D+00 WtEn= 0.00D+00
 Coeff-Com:  0.883D-04-0.386D-03-0.451D-03 0.120D-02-0.743D-04-0.199D-02
 Coeff-Com: -0.101D-01 0.238D-03 0.126D-01 0.122D-02 0.245D-01 0.973D+00
 Coeff:      0.883D-04-0.386D-03-0.451D-03 0.120D-02-0.743D-04-0.199D-02
 Coeff:     -0.101D-01 0.238D-03 0.126D-01 0.122D-02 0.245D-01 0.973D+00
 Gap=     0.257 Goal=   None    Shift=    0.000
 Gap=     0.095 Goal=   None    Shift=    0.000
 RMSDP=1.25D-05 MaxDP=2.49D-04 DE=-1.62D-05 OVMax= 1.07D-03

 Cycle  13  Pass 0  IDiag  1:
 E= -268.793419668100     Delta-E=       -0.000000363206 Rises=F Damp=F
 DIIS: error= 3.75D-05 at cycle  13 NSaved=  13.
 NSaved=13 IEnMin=13 EnMin= -268.793419668100     IErMin=13 ErrMin= 3.75D-05
 ErrMax= 3.75D-05 EMaxC= 1.00D-01 BMatC= 4.38D-07 BMatP= 9.77D-07
 IDIUse=1 WtCom= 1.00D+00 WtEn= 0.00D+00
 Coeff-Com:  0.234D-03-0.320D-03 0.128D-05-0.338D-03-0.464D-03-0.103D-02
 Coeff-Com:  0.732D-03 0.674D-02 0.115D-01-0.384D-02-0.675D-01 0.712D-01
 Coeff-Com:  0.983D+00
 Coeff:      0.234D-03-0.320D-03 0.128D-05-0.338D-03-0.464D-03-0.103D-02
 Coeff:      0.732D-03 0.674D-02 0.115D-01-0.384D-02-0.675D-01 0.712D-01
 Coeff:      0.983D+00
 Gap=     0.257 Goal=   None    Shift=    0.000
 Gap=     0.095 Goal=   None    Shift=    0.000
 RMSDP=5.04D-06 MaxDP=8.37D-05 DE=-3.63D-07 OVMax= 4.09D-04

 Initial convergence to 1.0D-05 achieved.  Increase integral accuracy.
 Cycle  14  Pass 1  IDiag  1:
 E= -268.793363917836     Delta-E=        0.000055750263 Rises=F Damp=F
 DIIS: error= 1.48D-05 at cycle   1 NSaved=   1.
 NSaved= 1 IEnMin= 1 EnMin= -268.793363917836     IErMin= 1 ErrMin= 1.48D-05
 ErrMax= 1.48D-05 EMaxC= 1.00D-01 BMatC= 7.95D-08 BMatP= 7.95D-08
 IDIUse=1 WtCom= 1.00D+00 WtEn= 0.00D+00
 Coeff-Com:  0.100D+01
 Coeff:      0.100D+01
 Gap=     0.257 Goal=   None    Shift=    0.000
 Gap=     0.095 Goal=   None    Shift=    0.000
 RMSDP=5.04D-06 MaxDP=8.37D-05 DE= 5.58D-05 OVMax= 2.56D-04

 Cycle  15  Pass 1  IDiag  1:
 E= -268.793363931388     Delta-E=       -0.000000013552 Rises=F Damp=F
 DIIS: error= 1.25D-05 at cycle   2 NSaved=   2.
 NSaved= 2 IEnMin= 2 EnMin= -268.793363931388     IErMin= 2 ErrMin= 1.25D-05
 ErrMax= 1.25D-05 EMaxC= 1.00D-01 BMatC= 5.99D-08 BMatP= 7.95D-08
 IDIUse=1 WtCom= 1.00D+00 WtEn= 0.00D+00
 Coeff-Com:  0.457D+00 0.543D+00
 Coeff:      0.457D+00 0.543D+00
 Gap=     0.257 Goal=   None    Shift=    0.000
 Gap=     0.095 Goal=   None    Shift=    0.000
 RMSDP=1.75D-06 MaxDP=3.53D-05 DE=-1.36D-08 OVMax= 1.23D-04

 Cycle  16  Pass 1  IDiag  1:
 E= -268.793363945141     Delta-E=       -0.000000013753 Rises=F Damp=F
 DIIS: error= 4.05D-06 at cycle   3 NSaved=   3.
 NSaved= 3 IEnMin= 3 EnMin= -268.793363945141     IErMin= 3 ErrMin= 4.05D-06
 ErrMax= 4.05D-06 EMaxC= 1.00D-01 BMatC= 3.89D-09 BMatP= 5.99D-08
 IDIUse=1 WtCom= 1.00D+00 WtEn= 0.00D+00
 Coeff-Com:  0.398D-01 0.190D+00 0.770D+00
 Coeff:      0.398D-01 0.190D+00 0.770D+00
 Gap=     0.257 Goal=   None    Shift=    0.000
 Gap=     0.095 Goal=   None    Shift=    0.000
 RMSDP=4.93D-07 MaxDP=1.30D-05 DE=-1.38D-08 OVMax= 2.38D-05

 Cycle  17  Pass 1  IDiag  1:
 E= -268.793363945191     Delta-E=       -0.000000000050 Rises=F Damp=F
 DIIS: error= 7.23D-06 at cycle   4 NSaved=   4.
 NSaved= 4 IEnMin= 4 EnMin= -268.793363945191     IErMin= 3 ErrMin= 4.05D-06
 ErrMax= 7.23D-06 EMaxC= 1.00D-01 BMatC= 5.52D-09 BMatP= 3.89D-09
 IDIUse=1 WtCom= 1.00D+00 WtEn= 0.00D+00
 Coeff-Com: -0.194D-01 0.857D-01 0.595D+00 0.339D+00
 Coeff:     -0.194D-01 0.857D-01 0.595D+00 0.339D+00
 Gap=     0.257 Goal=   None    Shift=    0.000
 Gap=     0.095 Goal=   None    Shift=    0.000
 RMSDP=2.43D-07 MaxDP=7.49D-06 DE=-5.01D-11 OVMax= 1.43D-05

 Cycle  18  Pass 1  IDiag  1:
 E= -268.793363946128     Delta-E=       -0.000000000937 Rises=F Damp=F
 DIIS: error= 8.39D-07 at cycle   5 NSaved=   5.
 NSaved= 5 IEnMin= 5 EnMin= -268.793363946128     IErMin= 5 ErrMin= 8.39D-07
 ErrMax= 8.39D-07 EMaxC= 1.00D-01 BMatC= 1.41D-10 BMatP= 3.89D-09
 IDIUse=1 WtCom= 1.00D+00 WtEn= 0.00D+00
 Coeff-Com: -0.152D-01 0.220D-01 0.230D+00 0.171D+00 0.592D+00
 Coeff:     -0.152D-01 0.220D-01 0.230D+00 0.171D+00 0.592D+00
 Gap=     0.257 Goal=   None    Shift=    0.000
 Gap=     0.095 Goal=   None    Shift=    0.000
 RMSDP=6.83D-08 MaxDP=1.61D-06 DE=-9.37D-10 OVMax= 2.59D-06

 Cycle  19  Pass 1  IDiag  1:
 E= -268.793363946163     Delta-E=       -0.000000000035 Rises=F Damp=F
 DIIS: error= 2.95D-07 at cycle   6 NSaved=   6.
 NSaved= 6 IEnMin= 6 EnMin= -268.793363946163     IErMin= 6 ErrMin= 2.95D-07
 ErrMax= 2.95D-07 EMaxC= 1.00D-01 BMatC= 1.26D-11 BMatP= 1.41D-10
 IDIUse=1 WtCom= 1.00D+00 WtEn= 0.00D+00
 Coeff-Com:  0.188D-02-0.140D-01-0.895D-01-0.687D-01 0.859D-01 0.108D+01
 Coeff:      0.188D-02-0.140D-01-0.895D-01-0.687D-01 0.859D-01 0.108D+01
 Gap=     0.257 Goal=   None    Shift=    0.000
 Gap=     0.095 Goal=   None    Shift=    0.000
 RMSDP=3.44D-08 MaxDP=5.33D-07 DE=-3.46D-11 OVMax= 1.29D-06

 Cycle  20  Pass 1  IDiag  1:
 E= -268.793363946169     Delta-E=       -0.000000000006 Rises=F Damp=F
 DIIS: error= 4.87D-08 at cycle   7 NSaved=   7.
 NSaved= 7 IEnMin= 7 EnMin= -268.793363946169     IErMin= 7 ErrMin= 4.87D-08
 ErrMax= 4.87D-08 EMaxC= 1.00D-01 BMatC= 7.87D-13 BMatP= 1.26D-11
 IDIUse=1 WtCom= 1.00D+00 WtEn= 0.00D+00
 Coeff-Com:  0.153D-02-0.467D-02-0.358D-01-0.309D-01-0.164D-01 0.251D+00
 Coeff-Com:  0.835D+00
 Coeff:      0.153D-02-0.467D-02-0.358D-01-0.309D-01-0.164D-01 0.251D+00
 Coeff:      0.835D+00
 Gap=     0.257 Goal=   None    Shift=    0.000
 Gap=     0.095 Goal=   None    Shift=    0.000
 RMSDP=8.19D-09 MaxDP=1.46D-07 DE=-5.68D-12 OVMax= 3.32D-07

 SCF Done:  E(UB3LYP) =  -268.793363946     A.U. after   20 cycles
             Convg  =    0.8193D-08             -V/T =  2.0092
 <Sx>= 0.0000 <Sy>= 0.0000 <Sz>= 0.5000 <S**2>= 1.7124 S= 0.9009
 <L.S>= 0.000000000000E+00
 KE= 2.663363687269D+02 PE=-9.425797841016D+02 EE= 2.502691302511D+02
 Annihilation of the first spin contaminant:
 S**2 before annihilation     1.7124,   after     0.7818
 Leave Link  502 at Wed Apr  1 00:24:29 2015, MaxMem= 3758096384 cpu:      80.7
 (Enter /share/apps/g09/l601.exe)
 Copying SCF densities to generalized density rwf, IOpCl= 1 IROHF=0.

 **********************************************************************

            Population analysis using the SCF density.

 **********************************************************************

 Orbital symmetries:
 Alpha Orbitals:
       Occupied  (A) (A) (A) (A) (A) (A) (A) (A) (A) (A) (A) (A)
                 (A) (A) (A) (A) (A) (A) (A) (A) (A)
       Virtual   (A) (A) (A) (A) (A) (A) (A) (A) (A) (A) (A) (A)
                 (A) (A) (A) (A) (A) (A) (A) (A) (A) (A) (A) (A)
                 (A) (A) (A) (A) (A) (A) (A) (A) (A) (A) (A) (A)
                 (A) (A) (A) (A) (A) (A) (A) (A) (A) (A) (A) (A)
                 (A) (A) (A) (A) (A) (A) (A) (A) (A) (A) (A) (A)
                 (A) (A) (A) (A) (A) (A) (A) (A)
 Beta  Orbitals:
       Occupied  (A) (A) (A) (A) (A) (A) (A) (A) (A) (A) (A) (A)
                 (A) (A) (A) (A) (A) (A) (A) (A)
       Virtual   (A) (A) (A) (A) (A) (A) (A) (A) (A) (A) (A) (A)
                 (A) (A) (A) (A) (A) (A) (A) (A) (A) (A) (A) (A)
                 (A) (A) (A) (A) (A) (A) (A) (A) (A) (A) (A) (A)
                 (A) (A) (A) (A) (A) (A) (A) (A) (A) (A) (A) (A)
                 (A) (A) (A) (A) (A) (A) (A) (A) (A) (A) (A) (A)
                 (A) (A) (A) (A) (A) (A) (A) (A) (A)
 The electronic state is 2-A.
 Alpha  occ. eigenvalues --  -19.30229 -19.29831 -10.18934 -10.17787 -10.17478
 Alpha  occ. eigenvalues --   -1.28685  -0.82726  -0.77293  -0.65770  -0.56885
 Alpha  occ. eigenvalues --   -0.54707  -0.54521  -0.53541  -0.44947  -0.43298
 Alpha  occ. eigenvalues --   -0.40166  -0.35294  -0.34672  -0.33933  -0.29800
 Alpha  occ. eigenvalues --   -0.29654
 Alpha virt. eigenvalues --   -0.03992   0.10455   0.14635   0.14971   0.15675
 Alpha virt. eigenvalues --    0.17274   0.18712   0.20314   0.20686   0.24614
 Alpha virt. eigenvalues --    0.28340   0.51236   0.52047   0.53888   0.57604
 Alpha virt. eigenvalues --    0.59605   0.62774   0.66941   0.69445   0.71913
 Alpha virt. eigenvalues --    0.74262   0.78190   0.79774   0.83139   0.85067
 Alpha virt. eigenvalues --    0.86931   0.87767   0.88820   0.90606   0.92155
 Alpha virt. eigenvalues --    0.94442   0.95840   0.98445   1.01445   1.03651
 Alpha virt. eigenvalues --    1.21650   1.31084   1.44257   1.49171   1.49712
 Alpha virt. eigenvalues --    1.50500   1.52774   1.53351   1.60011   1.72950
 Alpha virt. eigenvalues --    1.85164   1.90302   1.90452   1.93267   1.95495
 Alpha virt. eigenvalues --    2.01271   2.08323   2.17261   2.24056   2.34111
 Alpha virt. eigenvalues --    2.37095   2.40387   2.43504   2.54426   2.54855
 Alpha virt. eigenvalues --    2.61672   2.68591   2.81530   3.18661   3.52529
 Alpha virt. eigenvalues --    4.12153   4.23965   4.44748
  Beta  occ. eigenvalues --  -19.27329 -19.26960 -10.19128 -10.18849 -10.17509
  Beta  occ. eigenvalues --   -1.22978  -0.78217  -0.74018  -0.67455  -0.58257
  Beta  occ. eigenvalues --   -0.49697  -0.45514  -0.44703  -0.44556  -0.43851
  Beta  occ. eigenvalues --   -0.40691  -0.35916  -0.35223  -0.34237  -0.19896
  Beta virt. eigenvalues --   -0.10421  -0.10380   0.10266   0.13722   0.14452
  Beta virt. eigenvalues --    0.15445   0.17249   0.18515   0.20027   0.24135
  Beta virt. eigenvalues --    0.24713   0.27726   0.50845   0.51250   0.52160
  Beta virt. eigenvalues --    0.56788   0.58731   0.60469   0.66681   0.70750
  Beta virt. eigenvalues --    0.72154   0.75265   0.79704   0.81891   0.85258
  Beta virt. eigenvalues --    0.86721   0.86936   0.89145   0.89639   0.92343
  Beta virt. eigenvalues --    0.93407   0.93986   0.95714   0.99265   1.02810
  Beta virt. eigenvalues --    1.05188   1.21393   1.33307   1.42692   1.48873
  Beta virt. eigenvalues --    1.52927   1.53321   1.58047   1.58586   1.60017
  Beta virt. eigenvalues --    1.67858   1.83647   1.91486   1.94579   1.97052
  Beta virt. eigenvalues --    1.97570   1.99049   2.06083   2.14538   2.23716
  Beta virt. eigenvalues --    2.33493   2.35829   2.42740   2.43951   2.58583
  Beta virt. eigenvalues --    2.58935   2.60935   2.68038   2.84040   3.22962
  Beta virt. eigenvalues --    3.56815   4.10290   4.22797   4.44369
          Condensed to atoms (all electrons):
              1          2          3          4          5          6
     1  C    5.067571   0.376169   0.369973   0.378628   0.378307  -0.036139
     2  H    0.376169   0.564565  -0.029264  -0.031947  -0.035419  -0.004882
     3  H    0.369973  -0.029264   0.577172  -0.031239  -0.028609  -0.002782
     4  H    0.378628  -0.031947  -0.031239   0.575530  -0.035720   0.005059
     5  C    0.378307  -0.035419  -0.028609  -0.035720   4.910782   0.378139
     6  H   -0.036139  -0.004882  -0.002782   0.005059   0.378139   0.596245
     7  H   -0.041599   0.005433  -0.002237  -0.004478   0.370248  -0.042007
     8  C   -0.048265  -0.000586   0.004522  -0.004188   0.393197  -0.040014
     9  H    0.003859   0.000030  -0.000154  -0.000014  -0.031414  -0.004439
    10  H   -0.005274   0.000074   0.000040   0.004271  -0.039585   0.004513
    11  O   -0.000889   0.003512   0.000008  -0.000004  -0.000126  -0.000019
    12  O    0.000030  -0.000101   0.000000   0.000001   0.000006   0.000002
              7          8          9         10         11         12
     1  C   -0.041599  -0.048265   0.003859  -0.005274  -0.000889   0.000030
     2  H    0.005433  -0.000586   0.000030   0.000074   0.003512  -0.000101
     3  H   -0.002237   0.004522  -0.000154   0.000040   0.000008   0.000000
     4  H   -0.004478  -0.004188  -0.000014   0.004271  -0.000004   0.000001
     5  C    0.370248   0.393197  -0.031414  -0.039585  -0.000126   0.000006
     6  H   -0.042007  -0.040014  -0.004439   0.004513  -0.000019   0.000002
     7  H    0.615796  -0.049823   0.001063   0.000354   0.000013   0.000000
     8  C   -0.049823   5.291696   0.368427   0.373162   0.008696  -0.000974
     9  H    0.001063   0.368427   0.556119  -0.037718  -0.000058   0.000006
    10  H    0.000354   0.373162  -0.037718   0.556339  -0.000162   0.000201
    11  O    0.000013   0.008696  -0.000058  -0.000162   7.880355   0.114220
    12  O    0.000000  -0.000974   0.000006   0.000201   0.114220   7.903756
 Mulliken atomic charges:
              1
     1  C   -0.442372
     2  H    0.152416
     3  H    0.142569
     4  H    0.144100
     5  C   -0.259806
     6  H    0.146323
     7  H    0.147237
     8  C   -0.295850
     9  H    0.144292
    10  H    0.143783
    11  O   -0.005546
    12  O   -0.017146
 Sum of Mulliken atomic charges =   0.00000
 Mulliken charges with hydrogens summed into heavy atoms:
              1
     1  C   -0.003287
     5  C    0.033754
     8  C   -0.007775
    11  O   -0.005546
    12  O   -0.017146
 Sum of Mulliken charges with hydrogens summed into heavy atoms =   0.00000
          Atomic-Atomic Spin Densities.
              1          2          3          4          5          6
     1  C   -0.025023   0.005498   0.004303  -0.001225  -0.008084  -0.006345
     2  H    0.005498  -0.003429  -0.001834   0.000891   0.000980   0.001181
     3  H    0.004303  -0.001834  -0.002546   0.000643  -0.000232   0.001003
     4  H   -0.001225   0.000891   0.000643  -0.000008  -0.000720  -0.000226
     5  C   -0.008084   0.000980  -0.000232  -0.000720   0.062509  -0.005839
     6  H   -0.006345   0.001181   0.001003  -0.000226  -0.005839  -0.027885
     7  H    0.009797  -0.000897  -0.002262   0.001255  -0.012229   0.012805
     8  C    0.011941  -0.004930  -0.000482   0.000421   0.037646   0.010464
     9  H   -0.000063   0.000037   0.000002  -0.000019   0.000328  -0.000873
    10  H   -0.000854   0.000103   0.000047  -0.000105  -0.000155  -0.000116
    11  O   -0.000159   0.000521   0.000001   0.000007   0.000138   0.000037
    12  O    0.000049  -0.000246   0.000000  -0.000002  -0.000003   0.000000
              7          8          9         10         11         12
     1  C    0.009797   0.011941  -0.000063  -0.000854  -0.000159   0.000049
     2  H   -0.000897  -0.004930   0.000037   0.000103   0.000521  -0.000246
     3  H   -0.002262  -0.000482   0.000002   0.000047   0.000001   0.000000
     4  H    0.001255   0.000421  -0.000019  -0.000105   0.000007  -0.000002
     5  C   -0.012229   0.037646   0.000328  -0.000155   0.000138  -0.000003
     6  H    0.012805   0.010464  -0.000873  -0.000116   0.000037   0.000000
     7  H   -0.098440   0.030301   0.000587   0.000569  -0.000005   0.000000
     8  C    0.030301  -1.147251   0.006552   0.007482  -0.002865   0.000366
     9  H    0.000587   0.006552   0.044957  -0.002288   0.000033  -0.000002
    10  H    0.000569   0.007482  -0.002288   0.044301  -0.000191   0.000038
    11  O   -0.000005  -0.002865   0.000033  -0.000191   1.305009  -0.316837
    12  O    0.000000   0.000366  -0.000002   0.000038  -0.316837   1.295929
 Mulliken atomic spin densities:
              1
     1  C   -0.010163
     2  H   -0.002124
     3  H   -0.001357
     4  H    0.000912
     5  C    0.074340
     6  H   -0.015795
     7  H   -0.058518
     8  C   -1.050356
     9  H    0.049249
    10  H    0.048831
    11  O    0.985690
    12  O    0.979291
 Sum of Mulliken atomic spin densities =   1.00000
 Electronic spatial extent (au):  <R**2>=            755.3778
 Charge=              0.0000 electrons
 Dipole moment (field-independent basis, Debye):
    X=             -0.6696    Y=              0.1056    Z=             -0.0472  Tot=              0.6795
 Quadrupole moment (field-independent basis, Debye-Ang):
   XX=            -31.0238   YY=            -30.4188   ZZ=            -30.2732
   XY=              0.2072   XZ=              0.0564   YZ=             -0.1327
 Traceless Quadrupole moment (field-independent basis, Debye-Ang):
   XX=             -0.4519   YY=              0.1532   ZZ=              0.2987
   XY=              0.2072   XZ=              0.0564   YZ=             -0.1327
 Octapole moment (field-independent basis, Debye-Ang**2):
  XXX=             18.4169  YYY=              0.0082  ZZZ=             -0.3984  XYY=              8.4139
  XXY=             -1.0906  XXZ=             -2.2726  XZZ=              6.8163  YZZ=             -0.3327
  YYZ=             -1.6392  XYZ=              0.4632
 Hexadecapole moment (field-independent basis, Debye-Ang**3):
 XXXX=           -668.0158 YYYY=           -181.8796 ZZZZ=            -68.6579 XXXY=             -0.0070
 XXXZ=             -2.4731 YYYX=             -1.8930 YYYZ=             -2.0934 ZZZX=             -0.1726
 ZZZY=             -0.6666 XXYY=           -142.1837 XXZZ=           -123.4815 YYZZ=            -43.1468
 XXYZ=              0.2774 YYXZ=              1.7324 ZZXY=             -0.3124
 N-N= 1.571809211773D+02 E-N=-1.403386555767D+03  KE= 3.968239743505D+02
                          Isotropic Fermi Contact Couplings
        Atom                 a.u.       MegaHertz       Gauss      10(-4) cm-1
     1  C(13)             -0.01505     -16.92403      -6.03892      -5.64525
     2  H(1)               0.00053       2.36676       0.84452       0.78946
     3  H(1)               0.00000       0.02060       0.00735       0.00687
     4  H(1)               0.00032       1.43267       0.51121       0.47789
     5  C(13)              0.02469      27.75970       9.90535       9.25964
     6  H(1)              -0.00871     -38.94257     -13.89568     -12.98984
     7  H(1)              -0.03044    -136.06512     -48.55142     -45.38644
     8  C(13)             -0.11721    -131.76764     -47.01797     -43.95295
     9  H(1)               0.01460      65.24417      23.28074      21.76311
    10  H(1)               0.01446      64.62347      23.05926      21.55607
    11  O(17)              0.13171     -79.84306     -28.48999     -26.63278
    12  O(17)              0.13653     -82.76414     -29.53230     -27.60714
 --------------------------------------------------------
       Center         ----  Spin Dipole Couplings  ----
                      3XX-RR        3YY-RR        3ZZ-RR
 --------------------------------------------------------
     1   Atom        0.017808     -0.023494      0.005687
     2   Atom        0.016156     -0.015213     -0.000943
     3   Atom        0.004987     -0.006127      0.001140
     4   Atom        0.008185     -0.008809      0.000624
     5   Atom       -0.001735     -0.003494      0.005229
     6   Atom        0.009997      0.000929     -0.010926
     7   Atom       -0.009008      0.002620      0.006388
     8   Atom       -0.466518      0.172141      0.294377
     9   Atom        0.024061     -0.049696      0.025635
    10   Atom        0.021845      0.046667     -0.068512
    11   Atom       -0.428933      1.096750     -0.667817
    12   Atom       -0.440984      1.140929     -0.699944
 --------------------------------------------------------
                        XY            XZ            YZ
 --------------------------------------------------------
     1   Atom       -0.007027     -0.000129      0.007465
     2   Atom        0.010282     -0.001691     -0.002555
     3   Atom       -0.001534     -0.000704     -0.001332
     4   Atom       -0.002257     -0.000648      0.004520
     5   Atom       -0.007692     -0.000955     -0.009696
     6   Atom       -0.005772     -0.006932     -0.009002
     7   Atom       -0.007445     -0.005539     -0.003968
     8   Atom        0.576290      0.459460     -0.267334
     9   Atom       -0.013964      0.033131      0.043801
    10   Atom        0.023809     -0.028240      0.011975
    11   Atom        0.303087     -1.676512      0.317226
    12   Atom        0.346542     -1.633369      0.278561
 --------------------------------------------------------


 ---------------------------------------------------------------------------------
              Anisotropic Spin Dipole Couplings in Principal Axis System
 ---------------------------------------------------------------------------------

       Atom             a.u.   MegaHertz   Gauss  10(-4) cm-1        Axes

              Baa    -0.0263    -3.535    -1.261    -1.179  0.1526  0.9626 -0.2237
     1 C(13)  Bbb     0.0072     0.969     0.346     0.323  0.1459  0.2020  0.9685
              Bcc     0.0191     2.566     0.915     0.856  0.9775 -0.1804 -0.1096
 
              Baa    -0.0185    -9.873    -3.523    -3.293 -0.2776  0.9541  0.1121
     2 H(1)   Bbb    -0.0010    -0.530    -0.189    -0.177  0.1421 -0.0746  0.9870
              Bcc     0.0195    10.403     3.712     3.470  0.9501  0.2899 -0.1149
 
              Baa    -0.0066    -3.519    -1.256    -1.174  0.1399  0.9736  0.1804
     3 H(1)   Bbb     0.0013     0.710     0.253     0.237  0.1057 -0.1958  0.9749
              Bcc     0.0053     2.808     1.002     0.937  0.9845 -0.1174 -0.1303
 
              Baa    -0.0108    -5.766    -2.057    -1.923  0.0979  0.9274 -0.3611
     4 H(1)   Bbb     0.0021     1.127     0.402     0.376  0.2216  0.3334  0.9164
              Bcc     0.0087     4.639     1.655     1.548  0.9702 -0.1697 -0.1729
 
              Baa    -0.0139    -1.867    -0.666    -0.623  0.5100  0.7568  0.4088
     5 C(13)  Bbb     0.0015     0.197     0.070     0.066  0.8167 -0.2770 -0.5062
              Bcc     0.0124     1.671     0.596     0.557  0.2699 -0.5920  0.7594
 
              Baa    -0.0185    -9.886    -3.528    -3.298  0.2972  0.4721  0.8299
     6 H(1)   Bbb     0.0054     2.877     1.027     0.960  0.2104  0.8155 -0.5392
              Bcc     0.0131     7.009     2.501     2.338  0.9313 -0.3349 -0.1430
 
              Baa    -0.0148    -7.885    -2.814    -2.630  0.8491  0.4325  0.3033
     7 H(1)   Bbb     0.0058     3.107     1.108     1.036 -0.5215  0.7778  0.3507
              Bcc     0.0090     4.779     1.705     1.594 -0.0842 -0.4560  0.8860
 
              Baa    -1.0209  -136.991   -48.882   -45.695  0.7992 -0.4700 -0.3747
     8 C(13)  Bbb     0.5075    68.100    24.300    22.716 -0.0025 -0.6260  0.7798
              Bcc     0.5134    68.891    24.582    22.980  0.6011  0.6223  0.5015
 
              Baa    -0.0771   -41.134   -14.677   -13.721  0.2649  0.8532 -0.4492
     9 H(1)   Bbb     0.0139     7.427     2.650     2.477  0.7709 -0.4673 -0.4329
              Bcc     0.0632    33.707    12.027    11.243  0.5793  0.2316  0.7815
 
              Baa    -0.0793   -42.300   -15.094   -14.110  0.2978 -0.1460  0.9434
    10 H(1)   Bbb     0.0180     9.605     3.427     3.204  0.7894 -0.5181 -0.3294
              Bcc     0.0613    32.695    11.666    10.906  0.5368  0.8428 -0.0390
 
              Baa    -2.2860   165.416    59.024    55.177  0.6760 -0.1286  0.7256
    11 O(17)  Bbb     1.1310   -81.840   -29.203   -27.299  0.6896 -0.2365 -0.6844
              Bcc     1.1550   -83.576   -29.822   -27.878  0.2596  0.9631 -0.0712
 
              Baa    -2.2657   163.948    58.501    54.687  0.6749 -0.1281  0.7268
    12 O(17)  Bbb     1.0411   -75.333   -26.881   -25.128 -0.6436  0.3798  0.6645
              Bcc     1.2247   -88.615   -31.620   -29.559  0.3611  0.9162 -0.1739
 

 ---------------------------------------------------------------------------------

 No NMR shielding tensors so no spin-rotation constants.
 Leave Link  601 at Wed Apr  1 00:24:29 2015, MaxMem= 3758096384 cpu:       3.5
 (Enter /share/apps/g09/l701.exe)
 Compute integral first derivatives.
 ... and contract with generalized density number  0.
 Leave Link  701 at Wed Apr  1 00:24:30 2015, MaxMem= 3758096384 cpu:       3.0
 (Enter /share/apps/g09/l702.exe)
 L702 exits ... SP integral derivatives will be done elsewhere.
 Leave Link  702 at Wed Apr  1 00:24:30 2015, MaxMem= 3758096384 cpu:       0.2
 (Enter /share/apps/g09/l703.exe)
 Compute integral first derivatives, UseDBF=F ICtDFT=           0.
 Integral derivatives from FoFDir, PRISM(SPDF).
 Calling FoFJK, ICntrl=      2127 FMM=F ISym2X=0 I1Cent= 0 IOpClX= 1 NMat=1 NMatS=1 NMatT=0.
 FoFCou: FMM=F IPFlag=           0 FMFlag=      100000 FMFlg1=         800
         NFxFlg=           0 DoJE=F BraDBF=F KetDBF=F FulRan=T
         Omega=  0.000000  0.000000  1.000000  0.000000  0.000000 ICntrl=    2127 IOpCl=  1
         NMat0=    1 NMatS0=    1 NMatT0=    0 NMatD0=    1 NMtDS0=    0 NMtDT0=    0
         I1Cent=           0 NGrid=           0.
 Symmetry not used in FoFCou.
 Leave Link  703 at Wed Apr  1 00:24:31 2015, MaxMem= 3758096384 cpu:       9.2
 (Enter /share/apps/g09/l716.exe)
 Dipole        =-2.63450819D-01 4.15339278D-02-1.85593516D-02
 ***** Axes restored to original set *****
 -------------------------------------------------------------------
 Center     Atomic                   Forces (Hartrees/Bohr)
 Number     Number              X              Y              Z
 -------------------------------------------------------------------
      1        6          -0.000030303    0.000057907   -0.000043144
      2        1           0.000091400   -0.000012320   -0.000009612
      3        1           0.000011871   -0.000033702   -0.000008012
      4        1           0.000011215   -0.000003217   -0.000001223
      5        6          -0.000078241    0.000055903    0.000024992
      6        1          -0.000012276   -0.000037994   -0.000024672
      7        1          -0.000046897   -0.000065926   -0.000020729
      8        6           0.001248641   -0.000456344   -0.000302680
      9        1           0.000028601    0.000005781   -0.000028214
     10        1           0.000027018   -0.000036563    0.000033136
     11        8          -0.000363107    0.000361715    0.001337799
     12        8          -0.000887921    0.000164760   -0.000957641
 -------------------------------------------------------------------
 Cartesian Forces:  Max     0.001337799 RMS     0.000397354
 Leave Link  716 at Wed Apr  1 00:24:31 2015, MaxMem= 3758096384 cpu:       0.2
 (Enter /share/apps/g09/l103.exe)

 GradGradGradGradGradGradGradGradGradGradGradGradGradGradGradGradGradGrad
 Berny optimization.
 Internal  Forces:  Max     0.000823769 RMS     0.000124657
 Search for a local minimum.
 Step number   1 out of a maximum of  100
 All quantities printed in internal units (Hartrees-Bohrs-Radians)
 RMS Force = .10917D-03 SwitMx=.10000D-02 MixMth= 2
 Mixed Optimization -- En-DIIS/RFO-DIIS
 Second derivative matrix not updated -- first step.
     Eigenvalues ---    0.00369   0.00817   0.00974   0.01422   0.01718
     Eigenvalues ---    0.01898   0.02172   0.02874   0.03449   0.04281
     Eigenvalues ---    0.05719   0.06917   0.07218   0.08137   0.09205
     Eigenvalues ---    0.10130   0.11308   0.12931   0.14477   0.25310
     Eigenvalues ---    0.26724   0.28552   0.30369   0.31619   0.32473
     Eigenvalues ---    0.32914   0.34042   0.34169   0.701071000.00000
     Eigenvalues --- 1000.000001000.000001000.000001000.000001000.00000
     Eigenvalues --- 1000.000001000.000001000.000001000.000001000.00000
     Eigenvalues --- 1000.000001000.000001000.000001000.000001000.00000
     Eigenvalues --- 1000.000001000.000001000.000001000.000001000.00000
     Eigenvalues --- 1000.000001000.000001000.000001000.000001000.00000
     Eigenvalues --- 1000.000001000.000001000.000001000.000001000.00000
     Eigenvalues --- 1000.000001000.000001000.000001000.000001000.00000
     Eigenvalues --- 1000.000001000.000001000.000001000.000001000.00000
     Eigenvalues --- 1000.000001000.000001000.000001000.000001000.00000
     Eigenvalues --- 1000.000001000.000001000.000001000.000001000.00000
     Eigenvalues --- 1000.000001000.000001000.000001000.000001000.00000
     Eigenvalues --- 1000.000001000.000001000.000001000.000001000.00000
     Eigenvalues --- 1000.000001000.000001000.000001000.000001000.00000
     Eigenvalues --- 1000.000001000.000001000.000001000.000001000.00000
     Eigenvalues --- 1000.00000
 RFO step:  Lambda=-2.20240667D-06 EMin= 3.68721126D-03
 Linear search not attempted -- first point.
 Iteration  1 RMS(Cart)=  0.00033326 RMS(Int)=  0.00000043
 Iteration  2 RMS(Cart)=  0.00000013 RMS(Int)=  0.00000013
 Iteration  1 RMS(Cart)=  0.00000000 RMS(Int)=  0.00000000
 Variable       Old X    -DE/DX   Delta X   Delta X   Delta X     New X
                                 (Linear)    (Quad)   (Total)
    R1        2.06963  -0.00001   0.00000   0.00016   0.00016   2.06979
    R2        2.07045   0.00001   0.00000   0.00004   0.00004   2.07049
    R3        2.07259   0.00000   0.00000   0.00000   0.00000   2.07259
    R4        2.90167  -0.00002   0.00000  -0.00005  -0.00005   2.90162
    R5        7.18973   0.00000   0.00000  -0.00140  -0.00140   7.18833
    R6        5.69694   0.00001   0.00000  -0.00195  -0.00195   5.69499
    R7        6.94678  -0.00013   0.00000  -0.00257  -0.00257   6.94421
    R8        2.07731  -0.00003   0.00000   0.00006   0.00006   2.07737
    R9        2.09203   0.00002   0.00000   0.00006   0.00006   2.09209
   R10        2.81717   0.00014   0.00000   0.00036   0.00036   2.81753
   R11        7.06679  -0.00008   0.00000   0.00027   0.00027   7.06706
   R12        7.05001   0.00003   0.00000   0.00066   0.00066   7.05066
   R13        2.05144   0.00005   0.00000   0.00005   0.00005   2.05149
   R14        2.05324   0.00007   0.00000   0.00010   0.00010   2.05334
   R15        5.97476  -0.00034   0.00000   0.00000   0.00000   5.97476
   R16        7.30142  -0.00047   0.00000  -0.00077  -0.00077   7.30064
   R17        6.37417  -0.00018   0.00000  -0.00047  -0.00047   6.37370
   R18        6.21859  -0.00018   0.00000  -0.00122  -0.00122   6.21737
   R19        6.91190  -0.00007   0.00000  -0.00172  -0.00172   6.91018
   R20        2.30234  -0.00082   0.00000  -0.00134  -0.00134   2.30100
    A1        1.88887  -0.00001   0.00000  -0.00017  -0.00017   1.88870
    A2        1.88039   0.00005   0.00000  -0.00005  -0.00005   1.88034
    A3        1.93347  -0.00007   0.00000   0.00022   0.00022   1.93369
    A4        1.88120   0.00000   0.00000  -0.00009  -0.00009   1.88111
    A5        1.94115   0.00001   0.00000   0.00015   0.00015   1.94130
    A6        2.38819   0.00006   0.00000  -0.00013  -0.00013   2.38806
    A7        1.93653   0.00001   0.00000  -0.00007  -0.00007   1.93645
    A8        1.89601  -0.00006   0.00000  -0.00015  -0.00015   1.89586
    A9        2.33056  -0.00001   0.00000   0.00022   0.00022   2.33078
   A10        1.91856  -0.00002   0.00000  -0.00042  -0.00042   1.91814
   A11        1.89567  -0.00001   0.00000   0.00006   0.00007   1.89573
   A12        1.98305   0.00002   0.00000  -0.00024  -0.00024   1.98281
   A13        1.83061  -0.00003   0.00000  -0.00008  -0.00008   1.83052
   A14        1.91519  -0.00001   0.00000   0.00015   0.00015   1.91534
   A15        1.91448   0.00006   0.00000   0.00054   0.00054   1.91502
   A16        2.89366  -0.00003   0.00000   0.00050   0.00050   2.89416
   A17        2.11336   0.00002   0.00000   0.00002   0.00002   2.11338
   A18        2.10392  -0.00011   0.00000  -0.00010  -0.00010   2.10382
   A19        1.94190   0.00000   0.00000  -0.00008  -0.00008   1.94181
   A20        2.04872   0.00005   0.00000   0.00025   0.00025   2.04897
   A21        1.67968   0.00000   0.00000  -0.00025  -0.00025   1.67943
   A22        0.58440  -0.00001   0.00000  -0.00004  -0.00004   0.58435
   A23        0.72189   0.00003   0.00000   0.00011   0.00011   0.72201
   A24        1.01828   0.00004   0.00000   0.00012   0.00012   1.01840
   A25        0.79253   0.00002   0.00000   0.00010   0.00010   0.79263
   A26        2.05301   0.00023   0.00000   0.00007   0.00007   2.05308
   A27        0.62217  -0.00001   0.00000   0.00003   0.00003   0.62220
   A28        0.74102  -0.00004   0.00000  -0.00007  -0.00007   0.74095
   A29        0.94553   0.00003   0.00000   0.00013   0.00013   0.94566
   A30        1.24193   0.00004   0.00000   0.00013   0.00013   1.24206
   A31        0.98661   0.00003   0.00000   0.00013   0.00013   0.98675
   A32        0.63635   0.00004   0.00000   0.00006   0.00006   0.63640
   A33        0.63844   0.00002   0.00000   0.00005   0.00005   0.63849
   A34        2.26929   0.00025   0.00000   0.00006   0.00006   2.26935
   A35        0.60696   0.00001   0.00000   0.00004   0.00004   0.60700
   A36        0.71069   0.00003   0.00000   0.00006   0.00006   0.71075
   A37        0.90375   0.00002   0.00000   0.00007   0.00007   0.90381
   A38        2.56431   0.00025   0.00000   0.00005   0.00005   2.56435
   A39        0.56392   0.00004   0.00000   0.00014   0.00014   0.56405
   A40        2.10102   0.00020   0.00000   0.00012   0.00012   2.10115
   A41        0.76383   0.00004   0.00000   0.00015   0.00015   0.76398
   A42        0.84159   0.00003   0.00000   0.00016   0.00016   0.84175
    D1        2.94890  -0.00005   0.00000   0.00045   0.00045   2.94935
    D2       -1.30461  -0.00003   0.00000   0.00023   0.00023  -1.30438
    D3        0.81654  -0.00002   0.00000   0.00024   0.00024   0.81678
    D4        1.08436  -0.00003   0.00000   0.00007   0.00007   1.08444
    D5        3.07808  -0.00008   0.00000  -0.00021  -0.00021   3.07787
    D6       -1.06938  -0.00001   0.00000   0.00037   0.00037  -1.06901
    D7       -1.01716   0.00003   0.00000   0.00004   0.00004  -1.01711
    D8        0.97656  -0.00003   0.00000  -0.00024  -0.00024   0.97632
    D9        3.11229   0.00005   0.00000   0.00034   0.00034   3.11263
   D10       -3.11104   0.00000   0.00000   0.00010   0.00010  -3.11093
   D11       -1.11732  -0.00005   0.00000  -0.00018  -0.00018  -1.11750
   D12        1.01841   0.00003   0.00000   0.00040   0.00040   1.01881
   D13        1.34104  -0.00002   0.00000   0.00068   0.00068   1.34172
   D14        2.34620  -0.00002   0.00000   0.00064   0.00064   2.34684
   D15        2.16162  -0.00003   0.00000   0.00058   0.00058   2.16219
   D16        2.82740   0.00000   0.00000   0.00070   0.00070   2.82810
   D17       -2.19548   0.00013   0.00000   0.00073   0.00073  -2.19474
   D18       -2.39106  -0.00003   0.00000  -0.00019  -0.00019  -2.39126
   D19       -1.38590  -0.00003   0.00000  -0.00023  -0.00023  -1.38613
   D20       -1.57049  -0.00004   0.00000  -0.00029  -0.00029  -1.57078
   D21       -0.90470  -0.00001   0.00000  -0.00017  -0.00017  -0.90487
   D22        0.35560   0.00012   0.00000  -0.00014  -0.00014   0.35547
   D23       -0.30512   0.00001   0.00000  -0.00018  -0.00018  -0.30530
   D24        0.07722   0.00005   0.00000  -0.00018  -0.00018   0.07704
   D25        2.76060   0.00007   0.00000  -0.00097  -0.00097   2.75963
   D26       -0.58431  -0.00015   0.00000   0.00006   0.00006  -0.58425
   D27        0.80995   0.00005   0.00000  -0.00058  -0.00058   0.80938
   D28        0.60501   0.00010   0.00000  -0.00036  -0.00036   0.60465
   D29       -2.73990  -0.00012   0.00000   0.00067   0.00067  -2.73922
   D30       -1.34563   0.00008   0.00000   0.00003   0.00003  -1.34560
   D31       -1.39729   0.00010   0.00000  -0.00065  -0.00065  -1.39794
   D32        1.54098  -0.00011   0.00000   0.00038   0.00038   1.54137
   D33        2.93525   0.00009   0.00000  -0.00026  -0.00026   2.93499
   D34        2.45046   0.00004   0.00000  -0.00095  -0.00095   2.44951
   D35       -0.38852  -0.00007   0.00000  -0.00129  -0.00129  -0.38981
   D36        0.58449  -0.00003   0.00000  -0.00112  -0.00112   0.58338
   D37        1.15707   0.00000   0.00000  -0.00110  -0.00110   1.15597
   D38       -0.32025  -0.00001   0.00000   0.00023   0.00023  -0.32002
   D39       -2.53440  -0.00003   0.00000   0.00038   0.00038  -2.53402
         Item               Value     Threshold  Converged?
 Maximum Force            0.000897     0.000450     NO 
 RMS     Force            0.000109     0.000300     YES
 Maximum Displacement     0.001418     0.001800     YES
 RMS     Displacement     0.000333     0.001200     YES
 Predicted change in Energy=-1.101304D-06
 GradGradGradGradGradGradGradGradGradGradGradGradGradGradGradGradGradGrad

 Leave Link  103 at Wed Apr  1 00:24:33 2015, MaxMem= 3758096384 cpu:      19.1
 (Enter /share/apps/g09/l202.exe)
                          Input orientation:                          
 ---------------------------------------------------------------------
 Center     Atomic      Atomic             Coordinates (Angstroms)
 Number     Number       Type             X           Y           Z
 ---------------------------------------------------------------------
      1          6           0       -1.679531   -1.150641    0.169025
      2          1           0       -0.683063   -1.540625   -0.064681
      3          1           0       -2.422197   -1.804192   -0.301915
      4          1           0       -1.817316   -1.215276    1.255181
      5          6           0       -1.825737    0.298291   -0.317693
      6          1           0       -1.715793    0.338770   -1.410730
      7          1           0       -2.862907    0.633354   -0.123662
      8          6           0       -0.864277    1.242409    0.320462
      9          1           0       -0.606923    2.185144   -0.152346
     10          1           0       -0.547711    1.096359    1.349595
     11          8           0        1.891381   -0.047531   -0.539068
     12          8           0        2.716855   -0.206863    0.341750
 ---------------------------------------------------------------------
                    Distance matrix (angstroms):
                    1          2          3          4          5
     1  C    0.000000
     2  H    1.095287   0.000000
     3  H    1.095658   1.774917   0.000000
     4  H    1.096767   1.770429   1.771229   0.000000
     5  C    1.535473   2.179755   2.185509   2.182863   0.000000
     6  H    2.171471   2.531898   2.514113   3.087466   1.099298
     7  H    2.160714   3.079186   2.483472   2.532173   1.107084
     8  C    2.532639   2.815396   3.477966   2.796820   1.490975
     9  H    3.518697   3.727578   4.385475   3.874150   2.252345
    10  H    2.779167   2.995360   3.828104   2.639028   2.247245
    11  O    3.803900   3.013658   4.663588   4.282218   3.739728
    12  O    4.499862   3.674719   5.419928   4.733917   4.617921
                    6          7          8          9         10
     6  H    0.000000
     7  H    1.749055   0.000000
     8  C    2.130415   2.136051   0.000000
     9  H    2.494437   2.738309   1.085600   0.000000
    10  H    3.091561   2.782982   1.086582   1.856013   0.000000
    11  O    3.731049   4.820728   3.161706   3.372819   3.290091
    12  O    4.797632   5.661830   3.863334   4.124722   3.656711
                   11         12
    11  O    0.000000
    12  O    1.217635   0.000000
 Stoichiometry    C3H7O2(2)
 Framework group  C1[X(C3H7O2)]
 Deg. of freedom    30
 Full point group                 C1      NOp   1
 Largest Abelian subgroup         C1      NOp   1
 Largest concise Abelian subgroup C1      NOp   1
                         Standard orientation:                         
 ---------------------------------------------------------------------
 Center     Atomic      Atomic             Coordinates (Angstroms)
 Number     Number       Type             X           Y           Z
 ---------------------------------------------------------------------
      1          6           0       -1.679153   -1.150902    0.168936
      2          1           0       -0.682618   -1.540713   -0.064770
      3          1           0       -2.421706   -1.804582   -0.302005
      4          1           0       -1.816928   -1.215561    1.255092
      5          6           0       -1.825611    0.298005   -0.317782
      6          1           0       -1.715674    0.338503   -1.410819
      7          1           0       -2.862839    0.632888   -0.123751
      8          6           0       -0.864315    1.242290    0.320372
      9          1           0       -0.607124    2.185069   -0.152435
     10          1           0       -0.547724    1.096294    1.349506
     11          8           0        1.891567   -0.047172   -0.539157
     12          8           0        2.717069   -0.206361    0.341660
 ---------------------------------------------------------------------
 Rotational constants (GHZ):      7.8093632      1.7240236      1.5401544
 Leave Link  202 at Wed Apr  1 00:24:33 2015, MaxMem= 3758096384 cpu:       0.6
 (Enter /share/apps/g09/l301.exe)
 Standard basis: 6-31G(d) (6D, 7F)
 Ernie: Thresh=  0.10000D-02 Tol=  0.10000D-05 Strict=F.
 There are    89 symmetry adapted basis functions of A   symmetry.
 Integral buffers will be    131072 words long.
 Raffenetti 2 integral format.
 Two-electron integral symmetry is turned on.
    89 basis functions,   168 primitive gaussians,    89 cartesian basis functions
    21 alpha electrons       20 beta electrons
       nuclear repulsion energy       157.2004046376 Hartrees.
 IExCor=  402 DFT=T Ex+Corr=B3LYP ExCW=0 ScaHFX=  0.200000
 ScaDFX=  0.800000  0.720000  1.000000  0.810000 ScalE2=  1.000000  1.000000
 IRadAn=      0 IRanWt=     -1 IRanGd=            0 ICorTp=0
 NAtoms=   12 NActive=   12 NUniq=   12 SFac= 7.50D-01 NAtFMM=   80 NAOKFM=F Big=F
 Leave Link  301 at Wed Apr  1 00:24:33 2015, MaxMem= 3758096384 cpu:       0.4
 (Enter /share/apps/g09/l302.exe)
 NPDir=0 NMtPBC=     1 NCelOv=     1 NCel=       1 NClECP=     1 NCelD=      1
         NCelK=      1 NCelE2=     1 NClLst=     1 CellRange=     0.0.
 One-electron integrals computed using PRISM.
 NBasis=    89 RedAO= T  NBF=    89
 NBsUse=    89 1.00D-06 NBFU=    89
 Precomputing XC quadrature grid using
 IXCGrd= 2 IRadAn=           0 IRanWt=          -1 IRanGd=           0 AccXCQ= 1.00D-10.
 NRdTot=     744 NPtTot=       94340 NUsed=       99717 NTot=       99749
 NSgBfM=    89    89    89    89    89 NAtAll=    12    12.
 Leave Link  302 at Wed Apr  1 00:24:34 2015, MaxMem= 3758096384 cpu:       4.0
 (Enter /share/apps/g09/l303.exe)
 DipDrv:  MaxL=1.
 Leave Link  303 at Wed Apr  1 00:24:34 2015, MaxMem= 3758096384 cpu:       1.1
 (Enter /share/apps/g09/l401.exe)
 Initial guess read from the read-write file.
 B after Tr=     0.000000    0.000000    0.000000
         Rot=    1.000000    0.000000    0.000000    0.000000 Ang=   0.00 deg.
 Guess basis will be translated and rotated to current coordinates.
 Initial guess orbital symmetries:
 Alpha Orbitals:
       Occupied  (A) (A) (A) (A) (A) (A) (A) (A) (A) (A) (A) (A)
                 (A) (A) (A) (A) (A) (A) (A) (A) (A)
       Virtual   (A) (A) (A) (A) (A) (A) (A) (A) (A) (A) (A) (A)
                 (A) (A) (A) (A) (A) (A) (A) (A) (A) (A) (A) (A)
                 (A) (A) (A) (A) (A) (A) (A) (A) (A) (A) (A) (A)
                 (A) (A) (A) (A) (A) (A) (A) (A) (A) (A) (A) (A)
                 (A) (A) (A) (A) (A) (A) (A) (A) (A) (A) (A) (A)
                 (A) (A) (A) (A) (A) (A) (A) (A)
 Beta  Orbitals:
       Occupied  (A) (A) (A) (A) (A) (A) (A) (A) (A) (A) (A) (A)
                 (A) (A) (A) (A) (A) (A) (A) (A)
       Virtual   (A) (A) (A) (A) (A) (A) (A) (A) (A) (A) (A) (A)
                 (A) (A) (A) (A) (A) (A) (A) (A) (A) (A) (A) (A)
                 (A) (A) (A) (A) (A) (A) (A) (A) (A) (A) (A) (A)
                 (A) (A) (A) (A) (A) (A) (A) (A) (A) (A) (A) (A)
                 (A) (A) (A) (A) (A) (A) (A) (A) (A) (A) (A) (A)
                 (A) (A) (A) (A) (A) (A) (A) (A) (A)
 The electronic state of the initial guess is 2-A.
 Initial guess <Sx>= 0.0000 <Sy>= 0.0000 <Sz>= 0.5000 <S**2>= 1.7124 S= 0.9009
 Leave Link  401 at Wed Apr  1 00:24:34 2015, MaxMem= 3758096384 cpu:       2.0
 (Enter /share/apps/g09/l502.exe)
 UHF open shell SCF:
 Requested convergence on RMS density matrix=1.00D-08 within 128 cycles.
 Requested convergence on MAX density matrix=1.00D-06.
 Requested convergence on             energy=1.00D-06.
 No special actions if energy rises.
 Using DIIS extrapolation, IDIIS=  1040.
 Integral symmetry usage will be decided dynamically.
        99596 words used for storage of precomputed grid.
 Keep R1 and R2 ints in memory in canonical form, NReq=17096789.
 IEnd=      143254 IEndB=      143254 NGot=  3758096384 MDV=  3741933723
 LenX=  3741933723 LenY=  3741925361
 Symmetry not used in FoFDir.
 MinBra= 0 MaxBra= 2 Meth= 1.
 IRaf=       0 NMat=   1 IRICut=       1 DoRegI=T DoRafI=F ISym2E= 0 JSym2E=0.

 Cycle   1  Pass 1  IDiag  1:
 E= -268.793364756159    
 DIIS: error= 1.20D-04 at cycle   1 NSaved=   1.
 NSaved= 1 IEnMin= 1 EnMin= -268.793364756159     IErMin= 1 ErrMin= 1.20D-04
 ErrMax= 1.20D-04 EMaxC= 1.00D-01 BMatC= 1.67D-06 BMatP= 1.67D-06
 IDIUse=3 WtCom= 9.99D-01 WtEn= 1.20D-03
 Coeff-Com:  0.100D+01
 Coeff-En:   0.100D+01
 Coeff:      0.100D+01
 Gap=     0.256 Goal=   None    Shift=    0.000
 Gap=     0.095 Goal=   None    Shift=    0.000
 RMSDP=9.13D-06 MaxDP=1.35D-04              OVMax= 3.46D-04

 Cycle   2  Pass 1  IDiag  1:
 E= -268.793365338516     Delta-E=       -0.000000582357 Rises=F Damp=F
 DIIS: error= 2.25D-05 at cycle   2 NSaved=   2.
 NSaved= 2 IEnMin= 2 EnMin= -268.793365338516     IErMin= 2 ErrMin= 2.25D-05
 ErrMax= 2.25D-05 EMaxC= 1.00D-01 BMatC= 4.94D-08 BMatP= 1.67D-06
 IDIUse=1 WtCom= 1.00D+00 WtEn= 0.00D+00
 Coeff-Com:  0.159D-01 0.984D+00
 Coeff:      0.159D-01 0.984D+00
 Gap=     0.256 Goal=   None    Shift=    0.000
 Gap=     0.095 Goal=   None    Shift=    0.000
 RMSDP=2.95D-06 MaxDP=4.76D-05 DE=-5.82D-07 OVMax= 2.24D-04

 Cycle   3  Pass 1  IDiag  1:
 E= -268.793365346477     Delta-E=       -0.000000007961 Rises=F Damp=F
 DIIS: error= 1.17D-05 at cycle   3 NSaved=   3.
 NSaved= 3 IEnMin= 3 EnMin= -268.793365346477     IErMin= 3 ErrMin= 1.17D-05
 ErrMax= 1.17D-05 EMaxC= 1.00D-01 BMatC= 3.90D-08 BMatP= 4.94D-08
 IDIUse=1 WtCom= 1.00D+00 WtEn= 0.00D+00
 Coeff-Com: -0.304D-01 0.471D+00 0.560D+00
 Coeff:     -0.304D-01 0.471D+00 0.560D+00
 Gap=     0.256 Goal=   None    Shift=    0.000
 Gap=     0.095 Goal=   None    Shift=    0.000
 RMSDP=1.06D-06 MaxDP=2.39D-05 DE=-7.96D-09 OVMax= 5.01D-05

 Cycle   4  Pass 1  IDiag  1:
 E= -268.793365353577     Delta-E=       -0.000000007099 Rises=F Damp=F
 DIIS: error= 7.11D-06 at cycle   4 NSaved=   4.
 NSaved= 4 IEnMin= 4 EnMin= -268.793365353577     IErMin= 4 ErrMin= 7.11D-06
 ErrMax= 7.11D-06 EMaxC= 1.00D-01 BMatC= 5.89D-09 BMatP= 3.90D-08
 IDIUse=1 WtCom= 1.00D+00 WtEn= 0.00D+00
 Coeff-Com: -0.197D-01 0.255D+00 0.350D+00 0.415D+00
 Coeff:     -0.197D-01 0.255D+00 0.350D+00 0.415D+00
 Gap=     0.256 Goal=   None    Shift=    0.000
 Gap=     0.095 Goal=   None    Shift=    0.000
 RMSDP=3.35D-07 MaxDP=1.15D-05 DE=-7.10D-09 OVMax= 2.09D-05

 Cycle   5  Pass 1  IDiag  1:
 E= -268.793365354455     Delta-E=       -0.000000000878 Rises=F Damp=F
 DIIS: error= 3.33D-06 at cycle   5 NSaved=   5.
 NSaved= 5 IEnMin= 5 EnMin= -268.793365354455     IErMin= 5 ErrMin= 3.33D-06
 ErrMax= 3.33D-06 EMaxC= 1.00D-01 BMatC= 1.31D-09 BMatP= 5.89D-09
 IDIUse=1 WtCom= 1.00D+00 WtEn= 0.00D+00
[...]
     Eigenvalues --- 1000.000001000.000001000.000001000.000001000.00000
     Eigenvalues --- 1000.000001000.000001000.000001000.000001000.00000
     Eigenvalues --- 1000.000001000.000001000.000001000.000001000.00000
     Eigenvalues --- 1000.000001000.000001000.000001000.000001000.00000
     Eigenvalues --- 1000.000001000.000001000.000001000.000001000.00000
     Eigenvalues --- 1000.000001000.000001000.000001000.000001000.00000
     Eigenvalues --- 1000.000001000.000001000.000001000.000001000.00000
     Eigenvalues --- 1000.000001000.000001000.000001000.000001000.00000
     Eigenvalues --- 1000.000001000.000001000.000001000.000001000.00000
     Eigenvalues --- 1000.00000
 Quadratic step=3.946D-01 exceeds max=3.000D-01 adjusted using Lamda=-2.243D-05.
 Angle between NR and scaled steps=   9.64 degrees.
 Angle between quadratic step and forces=  79.43 degrees.
 Linear search not attempted -- first point.
 Iteration  1 RMS(Cart)=  0.01880436 RMS(Int)=  0.00101170
 Iteration  2 RMS(Cart)=  0.00035196 RMS(Int)=  0.00030175
 Iteration  3 RMS(Cart)=  0.00000110 RMS(Int)=  0.00030175
 Iteration  4 RMS(Cart)=  0.00000000 RMS(Int)=  0.00030175
 Iteration  1 RMS(Cart)=  0.00000128 RMS(Int)=  0.00000394
 Iteration  2 RMS(Cart)=  0.00000088 RMS(Int)=  0.00000434
 Variable       Old X    -DE/DX   Delta X   Delta X   Delta X     New X
                                 (Linear)    (Quad)   (Total)
    R1        2.06979   0.00001   0.00000  -0.00007   0.00018   2.06997
    R2        2.07049   0.00000   0.00000   0.00003   0.00003   2.07052
    R3        2.07259   0.00001   0.00000   0.00003   0.00003   2.07262
    R4        2.90162   0.00000   0.00000   0.00028   0.00025   2.90187
    R5        7.18833  -0.00005   0.00000  -0.11825  -0.11820   7.07013
    R6        5.69499  -0.00004   0.00000  -0.14742  -0.14707   5.54792
    R7        6.94421   0.00002   0.00000  -0.14818  -0.14829   6.79592
    R8        2.07737  -0.00002   0.00000  -0.00014  -0.00012   2.07725
    R9        2.09209  -0.00001   0.00000  -0.00005  -0.00005   2.09204
   R10        2.81753   0.00010   0.00000   0.00007   0.00027   2.81781
   R11        7.06706  -0.00015   0.00000  -0.05417  -0.05436   7.01270
   R12        7.05066  -0.00005   0.00000  -0.04241  -0.04279   7.00787
   R13        2.05149   0.00006   0.00000  -0.00003   0.00012   2.05161
   R14        2.05334   0.00004   0.00000   0.00000  -0.00006   2.05329
   R15        5.97476  -0.00040   0.00000   0.00000   0.00002   5.97478
   R16        7.30064  -0.00025   0.00000   0.00719   0.00710   7.30774
   R17        6.37370  -0.00024   0.00000   0.03323   0.03275   6.40645
   R18        6.21737  -0.00021   0.00000   0.00559   0.00596   6.22333
   R19        6.91018  -0.00004   0.00000   0.01356   0.01384   6.92402
   R20        2.30100  -0.00008   0.00000  -0.00027  -0.00026   2.30074
    A1        1.88870   0.00001   0.00000   0.00029   0.00020   1.88890
    A2        1.88034  -0.00001   0.00000  -0.00010  -0.00031   1.88002
    A3        1.93369  -0.00004   0.00000  -0.00051  -0.00033   1.93336
    A4        1.88111   0.00000   0.00000   0.00010  -0.00004   1.88107
    A5        1.94130   0.00000   0.00000   0.00011   0.00031   1.94161
    A6        2.38806   0.00004   0.00000  -0.01059  -0.01092   2.37714
    A7        1.93645   0.00003   0.00000   0.00011   0.00016   1.93662
    A8        1.89586  -0.00003   0.00000  -0.00074  -0.00057   1.89530
    A9        2.33078   0.00000   0.00000   0.02117   0.02114   2.35192
   A10        1.91814   0.00002   0.00000  -0.00011  -0.00009   1.91805
   A11        1.89573  -0.00002   0.00000  -0.00040   0.00048   1.89621
   A12        1.98281  -0.00003   0.00000  -0.00041  -0.00031   1.98251
   A13        1.83052  -0.00003   0.00000   0.00034  -0.00045   1.83007
   A14        1.91534   0.00000   0.00000  -0.00002  -0.00022   1.91511
   A15        1.91502   0.00006   0.00000   0.00065   0.00059   1.91561
   A16        2.89416  -0.00003   0.00000   0.02006   0.01941   2.91358
   A17        2.11338  -0.00002   0.00000   0.00074   0.00073   2.11410
   A18        2.10382  -0.00006   0.00000  -0.00015  -0.00003   2.10379
   A19        1.94181   0.00006   0.00000  -0.02548  -0.02547   1.91634
   A20        2.04897   0.00004   0.00000   0.00016   0.00005   2.04902
   A21        1.67943   0.00005   0.00000   0.01884   0.01869   1.69812
   A22        0.58435   0.00001   0.00000   0.00713   0.00713   0.59149
   A23        0.72201   0.00002   0.00000   0.01121   0.01112   0.73313
   A24        1.01840   0.00004   0.00000   0.00886   0.00877   1.02718
   A25        0.79263   0.00001   0.00000   0.01089   0.01086   0.80349
   A26        2.05308   0.00008   0.00000  -0.00290  -0.00315   2.04994
   A27        0.62220   0.00001   0.00000   0.00525   0.00525   0.62745
   A28        0.74095   0.00000   0.00000   0.00709   0.00717   0.74812
   A29        0.94566   0.00003   0.00000   0.01128   0.01119   0.95685
   A30        1.24206   0.00004   0.00000   0.00874   0.00867   1.25072
   A31        0.98675   0.00002   0.00000   0.01202   0.01191   0.99865
   A32        0.63640   0.00003   0.00000   0.00321   0.00316   0.63956
   A33        0.63849   0.00002   0.00000   0.00416   0.00416   0.64265
   A34        2.26935   0.00011   0.00000   0.00294   0.00277   2.27213
   A35        0.60700   0.00002   0.00000   0.00377   0.00376   0.61076
   A36        0.71075   0.00003   0.00000   0.00135   0.00130   0.71204
   A37        0.90381   0.00003   0.00000   0.00397   0.00396   0.90777
   A38        2.56435   0.00012   0.00000   0.00492   0.00477   2.56912
   A39        0.56405   0.00004   0.00000  -0.00195  -0.00196   0.56210
   A40        2.10115   0.00010   0.00000   0.00676   0.00678   2.10792
   A41        0.76398   0.00000   0.00000   0.00623   0.00608   0.77006
   A42        0.84175   0.00000   0.00000   0.00989   0.00975   0.85150
    D1        2.94935   0.00000   0.00000   0.02118   0.02157   2.97092
    D2       -1.30438   0.00000   0.00000   0.02140   0.02147  -1.28291
    D3        0.81678   0.00001   0.00000   0.02116   0.02127   0.83805
    D4        1.08444   0.00002   0.00000   0.00084   0.00103   1.08546
    D5        3.07787  -0.00001   0.00000   0.00097   0.00071   3.07858
    D6       -1.06901   0.00003   0.00000   0.00124   0.00161  -1.06740
    D7       -1.01711   0.00003   0.00000   0.00074   0.00079  -1.01632
    D8        0.97632   0.00000   0.00000   0.00087   0.00047   0.97679
    D9        3.11263   0.00004   0.00000   0.00114   0.00137   3.11400
   D10       -3.11093   0.00001   0.00000   0.00046   0.00052  -3.11041
   D11       -1.11750  -0.00002   0.00000   0.00059   0.00020  -1.11730
   D12        1.01881   0.00002   0.00000   0.00086   0.00110   1.01991
   D13        1.34172  -0.00003   0.00000   0.02265   0.02240   1.36412
   D14        2.34684  -0.00002   0.00000   0.01490   0.01486   2.36170
   D15        2.16219  -0.00002   0.00000   0.01602   0.01590   2.17809
   D16        2.82810   0.00001   0.00000   0.00885   0.00888   2.83698
   D17       -2.19474   0.00008   0.00000   0.02853   0.02844  -2.16630
   D18       -2.39126  -0.00003   0.00000  -0.00208  -0.00220  -2.39346
   D19       -1.38613  -0.00002   0.00000  -0.00983  -0.00974  -1.39588
   D20       -1.57078  -0.00002   0.00000  -0.00871  -0.00870  -1.57948
   D21       -0.90487   0.00001   0.00000  -0.01588  -0.01572  -0.92060
   D22        0.35547   0.00008   0.00000   0.00380   0.00384   0.35931
   D23       -0.30530  -0.00002   0.00000  -0.01777  -0.01792  -0.32322
   D24        0.07704   0.00001   0.00000  -0.02258  -0.02267   0.05437
   D25        2.75963   0.00011   0.00000  -0.01382  -0.01389   2.74574
   D26       -0.58425  -0.00013   0.00000  -0.00942  -0.00945  -0.59370
   D27        0.80938   0.00001   0.00000  -0.01907  -0.01891   0.79047
   D28        0.60465   0.00010   0.00000  -0.01337  -0.01339   0.59126
   D29       -2.73922  -0.00013   0.00000  -0.00897  -0.00895  -2.74817
   D30       -1.34560   0.00000   0.00000  -0.01862  -0.01840  -1.36400
   D31       -1.39794   0.00011   0.00000  -0.01413  -0.01305  -1.41099
   D32        1.54137  -0.00013   0.00000  -0.00973  -0.00861   1.53276
   D33        2.93499   0.00001   0.00000  -0.01939  -0.01806   2.91693
   D34        2.44951  -0.00001   0.00000  -0.06192  -0.06250   2.38701
   D35       -0.38981  -0.00004   0.00000  -0.06588  -0.06622  -0.45603
   D36        0.58338   0.00000   0.00000  -0.07471  -0.07497   0.50841
   D37        1.15597   0.00003   0.00000  -0.05430  -0.05445   1.10152
   D38       -0.32002   0.00000   0.00000   0.01070   0.01052  -0.30949
   D39       -2.53402  -0.00003   0.00000   0.01005   0.01021  -2.52381
         Item               Value     Threshold  Converged?
 Maximum Force            0.000167     0.000450     YES
 RMS     Force            0.000022     0.000300     YES
 Maximum Displacement     0.085174     0.001800     NO 
 RMS     Displacement     0.019062     0.001200     NO 
 Predicted change in Energy=-7.014193D-06
 GradGradGradGradGradGradGradGradGradGradGradGradGradGradGradGradGradGrad

 Leave Link  103 at Wed Apr  1 00:25:11 2015, MaxMem= 3758096384 cpu:       0.2
 (Enter /share/apps/g09/l9999.exe)
 1\1\GINC-COMPUTE-0-2\Freq\UB3LYP\6-31G(d)\C3H7O2(2)\HETANJIN\01-Apr-20
 15\0\\#P Geom=AllCheck Guess=TCheck SCRF=Check GenChk UB3LYP/6-31G(d) 
 Freq\\C3H7O2_62_b3631gd using cbs-qb3 to calculate energy\\0,2\C,-1.67
 95305977,-1.150641256,0.1690251619\H,-0.6830634928,-1.5406254538,-0.06
 46808191\H,-2.4221967273,-1.8041921857,-0.3019151622\H,-1.8173164738,-
 1.2152761369,1.2551811256\C,-1.8257373679,0.2982911632,-0.3176927775\H
 ,-1.7157929858,0.3387701259,-1.4107298707\H,-2.8629068672,0.6333542348
 ,-0.1236617135\C,-0.8642769137,1.2424087878,0.3204617368\H,-0.60692314
 36,2.1851436869,-0.1523458438\H,-0.5477114035,1.0963586965,1.349595017
 1\O,1.8913806047,-0.0475306383,-0.5390675534\O,2.7168553686,-0.2068630
 244,0.3417496988\\Version=EM64L-G09RevA.01\State=2-A\HF=-268.7933654\S
 2=1.712617\S2-1=0.\S2A=0.781768\RMSD=3.217e-09\RMSF=3.127e-04\ZeroPoin
 t=0.09318\Thermal=0.1012999\Dipole=-0.2619696,0.0411584,-0.0187531\Dip
 oleDeriv=0.1066395,-0.0117535,0.005299,0.0328597,0.0529792,0.017179,-0
 .0558606,-0.0105857,0.1213136,-0.0975514,0.0982291,0.0362702,0.0486599
 ,0.007161,0.0070686,0.0428581,-0.0004126,0.0407647,-0.0482178,-0.10725
 89,-0.0672782,-0.1055716,-0.0719109,-0.0344688,-0.0674059,-0.0513863,0
 .0190181,0.0549631,0.006449,0.0180595,0.0110368,0.0229093,-0.0023905,0
 .0326475,0.0418087,-0.1634484,0.0432649,-0.0439948,-0.0524369,0.017174
 3,0.1063436,0.0287712,-0.0203206,0.01744,0.1080778,0.0547714,-0.012336
 1,0.0155542,-0.0608944,-0.0050797,0.010223,-0.0169712,0.0253155,-0.172
 7976,-0.2083325,0.0610538,0.0085082,-0.0182875,-0.0179653,-0.0130299,-
 0.0003363,-0.010043,0.0512514,-0.1881793,0.1881015,0.1259736,0.2843901
 ,-0.0330595,-0.1048561,0.2321369,-0.093568,0.088851,0.0764101,-0.07390
 55,-0.0277931,-0.0810474,-0.0919455,0.045246,-0.0267024,0.0547389,0.01
 57988,0.0686731,-0.0474445,-0.0523315,-0.039091,0.0319493,0.0412945,-0
 .0626386,0.0096516,-0.0861143,0.6685241,-0.2095684,-0.0626307,-0.18983
 52,0.0466937,0.0151047,0.4824092,-0.1453563,-0.0622102,-0.5309651,0.15
 24284,0.0528058,0.1006064,-0.0480752,-0.0101416,-0.5398161,0.1623973,0
 .0394951\Polar=66.0637581,-5.1104428,40.3949343,3.8920076,-0.5231375,3
 8.4376387\PG=C01 [X(C3H7O2)]\NImag=1\\0.58081517,0.01168526,0.48547082
 ,-0.00087234,0.03407820,0.56411596,-0.27102780,0.08334845,0.05325025,0
 .29209410,0.08201324,-0.07990821,-0.02091323,-0.09218054,0.08742187,0.
 05338362,-0.02127079,-0.06375032,-0.05852815,0.02039615,0.06379093,-0.
 17331009,-0.10588599,-0.07864054,-0.01908787,-0.01808486,-0.01415992,0
 .18396623,-0.10480305,-0.13949188,-0.06764954,0.00764271,0.00775348,0.
 00650709,0.11590648,0.15236116,-0.07845210,-0.06849390,-0.10010486,0.0
 0563114,0.00593869,0.00330108,0.08716900,0.07312747,0.10414700,-0.0549
 7689,-0.00170425,0.03371323,-0.00260198,-0.00191216,0.03126748,0.00362
 359,0.00214404,-0.02357145,0.05313046,-0.00175757,-0.04918643,0.010327
 62,0.00025544,-0.00007396,-0.01164056,0.00413886,0.00100867,-0.0195038
 9,0.00108234,0.05349274,0.03351741,0.01115921,-0.30536280,0.00063645,-
 0.00020329,-0.00606684,0.00217090,0.00042609,-0.01321995,-0.03662172,-
 0.01441339,0.33200119,-0.07606409,0.01560878,-0.00469805,-0.00134669,0
 .02886096,-0.01094891,0.00332045,-0.02143821,0.00850846,-0.00020573,-0
 .00479094,0.00123664,0.48603645,0.01221040,-0.17575226,0.03213496,0.00
 087648,-0.01257938,0.00455416,0.00405559,-0.01792425,0.00792679,0.0002
 7102,-0.00233773,0.00103143,-0.00059089,0.46346908,-0.00532979,0.03356
 907,-0.09554562,0.00003332,-0.00752464,0.00226377,0.00301418,-0.015337
 00,0.00504850,-0.00457908,0.03400179,-0.01027655,-0.00540056,0.0003359
 1,0.56019682,-0.00020998,-0.00007326,-0.00392378,0.00012081,-0.0003493
 3,-0.00062814,-0.00002587,-0.00024875,0.00042406,0.00079793,0.00061729
 ,-0.00068195,-0.04790059,-0.00058761,0.02881166,0.05500986,-0.00437766
 ,-0.00159631,0.03308549,0.00021639,0.00138562,-0.00062967,-0.00039903,
 0.00115678,-0.00051604,0.00090060,-0.00649354,0.00220230,-0.00077857,-
 0.05149391,0.00651953,0.00327355,0.05552751,0.00119568,0.00097800,-0.0
 0894432,-0.00052479,-0.00008767,0.00044939,0.00033724,0.00032384,0.000
 51948,-0.00033602,0.00202216,0.00107266,0.02906177,0.00878222,-0.29653
 755,-0.02929145,-0.00889760,0.32434388,-0.00292719,0.00165356,0.001054
 64,0.00127425,0.00045471,-0.00045513,0.00060725,0.00038888,0.00009318,
 0.00016804,-0.00008044,-0.00050137,-0.24493253,0.07372071,0.04629957,-
 0.00482143,0.00207775,0.00270493,0.27505438,0.03147966,-0.01323683,-0.
 00564556,0.00035179,-0.00637519,0.00283807,-0.00031138,0.00132027,-0.0
 0085303,-0.00046722,0.00148863,0.00009767,0.05970388,-0.06360508,-0.01
 269666,-0.00036557,0.00061900,-0.00005772,-0.07203580,0.07611033,-0.01
 043898,0.00526348,0.00203289,-0.00053492,0.00221604,0.00019387,0.00037
 604,-0.00067217,0.00014072,-0.00054627,-0.00056294,0.00045156,0.037980
 35,-0.01257826,-0.05387428,0.03211280,-0.01010257,-0.00783515,-0.04476
 854,0.01465729,0.05703874,-0.00050991,-0.00505161,0.00253347,0.0009093
 4,0.00114430,-0.00000181,0.00060324,0.00111927,-0.00047082,0.00029928,
 0.00097832,-0.00059093,-0.12084805,-0.07707605,-0.05430061,-0.00148843
 ,0.00037919,-0.00240260,-0.02372748,-0.01992648,-0.01503649,0.23762063
 ,-0.02382733,-0.02732905,-0.01193771,-0.00079604,0.00235774,-0.0007117
 7,0.00034274,-0.00519207,0.00171378,-0.00018297,0.00183012,-0.00097074
 ,-0.07243973,-0.13547380,-0.03079339,0.00021283,0.00225538,-0.00032524
 ,-0.00491633,0.00473889,0.00247505,0.18205120,0.47643888,0.00874341,0.
 00471482,0.00762090,-0.00023664,0.00053443,0.00011767,-0.00038787,0.00
 428593,-0.00060315,0.00100276,0.00101010,0.00065356,-0.05254337,-0.032
 93224,-0.11204075,-0.02554373,-0.02073231,-0.01414904,-0.00360475,0.00
 229328,0.00238648,0.14775533,-0.12708338,0.53599900,-0.00278867,-0.000
 11604,-0.00289207,0.00015056,-0.00008096,-0.00007072,0.00050412,-0.001
 11951,0.00045051,-0.00013582,0.00010507,0.00013346,0.00155201,-0.01687
 791,0.01155431,0.00056197,0.00083245,-0.00063595,-0.00035099,0.0011044
 6,-0.00012658,-0.04255558,-0.07277337,0.01382931,0.03826454,-0.0033427
 2,-0.00109999,-0.00199943,0.00009905,0.00014684,-0.00001459,0.00010651
 ,-0.00109753,0.00036793,0.00006767,0.00019573,0.00008227,0.00040147,-0
 .00902928,0.00824241,0.00055070,0.00057125,0.00000372,-0.00052321,-0.0
 0070930,0.00012289,-0.07745765,-0.26690240,0.12180920,0.08144121,0.277
 34186,-0.00205319,-0.00137269,-0.00079539,0.00006721,0.00005821,-0.000
 10286,-0.00007933,-0.00089865,0.00045937,-0.00018168,-0.00031034,0.000
 35009,-0.00287655,-0.01212788,0.00770148,0.00098325,0.00022547,0.00123
 246,-0.00059323,-0.00038538,0.00014516,0.01629822,0.11911227,-0.108102
 61,-0.01829293,-0.12758028,0.10615987,0.00087813,0.00083855,0.00030101
 ,-0.00000649,-0.00000294,0.00014227,-0.00012956,0.00025754,0.00019476,
 -0.00004053,-0.00053986,0.00069117,0.00011597,0.00428774,-0.02003252,-
 0.00211121,-0.00230825,-0.00025387,-0.00051004,0.00018585,0.00087453,-
 0.05042585,-0.00687450,-0.08833681,0.00491455,-0.00133516,0.00660607,0
 .04734708,0.00074962,0.00217148,-0.00135868,0.00021406,-0.00027054,-0.
 00005842,0.00018559,0.00014594,0.00027227,-0.00018299,0.00005983,0.000
 56282,-0.00429013,0.00464060,-0.01642027,-0.00298887,-0.00185243,-0.00
 267463,-0.00063550,-0.00021327,-0.00074978,-0.00591772,-0.05276832,0.0
 4582846,0.00730356,0.00055922,0.02342730,0.00547887,0.04754467,0.00035
 863,0.00124369,0.00072746,0.00010551,-0.00040276,-0.00009555,0.0001694
 8,-0.00006233,0.00031758,-0.00014739,-0.00091790,0.00038292,0.00004142
 ,0.00272722,-0.00697632,-0.00226172,-0.00111123,-0.00017475,-0.0001511
 2,-0.00010319,-0.00065729,-0.09366567,0.04826598,-0.31109968,-0.003856
 20,-0.00107162,-0.00705302,0.09954107,-0.04864901,0.32453840,0.0004669
 7,-0.00100406,0.00074840,-0.00052579,0.00055345,0.00018520,-0.00013396
 ,0.00058599,-0.00002264,-0.00005769,-0.00003131,-0.00010546,0.00247401
 ,-0.00112987,-0.00046498,-0.00003747,0.00076531,0.00033988,0.00068939,
 0.00136990,0.00055579,0.00077300,-0.00310232,-0.00142046,0.00021846,-0
 .00029433,0.00009222,0.00006385,0.00010229,-0.00070327,0.35979660,-0.0
 0007068,0.00009164,-0.00024659,0.00001178,0.00004412,0.00003347,-0.000
 05860,-0.00011829,0.00002951,-0.00002554,0.00002614,0.00005208,-0.0007
 7340,0.00028788,0.00021736,-0.00001646,-0.00018127,-0.00009550,-0.0002
 1832,-0.00035519,-0.00016406,-0.00039768,0.00041670,0.00016136,0.00008
 874,0.00009814,-0.00014412,0.00005974,-0.00005055,0.00017946,-0.067991
 69,0.01365292,0.00026674,-0.00055354,0.00063321,0.00002153,0.00044796,
 0.00000278,-0.00001045,0.00040682,-0.00005525,0.00000533,-0.00006133,-
 0.00010525,0.00157885,-0.00062891,-0.00029843,-0.00010849,0.00061805,0
 .00031791,0.00041992,0.00091696,0.00044914,0.00042932,-0.00228392,-0.0
 0295937,0.00009954,-0.00017406,0.00002559,0.00076291,-0.00036072,-0.00
 054282,0.38716822,-0.07304751,0.42216003,-0.00034566,0.00070059,-0.000
 57420,0.00004755,-0.00041587,-0.00018580,0.00006246,-0.00043540,0.0000
 4591,-0.00000067,0.00002279,0.00011540,-0.00220120,0.00084039,0.000394
 49,0.00010439,-0.00058174,-0.00019480,-0.00052366,-0.00108908,-0.00044
 774,-0.00065020,0.00230582,0.00074280,-0.00033514,0.00028645,0.0000299
 3,-0.00009592,-0.00001877,0.00056925,-0.36372736,0.06939212,-0.3906334
 1,0.36766542,0.00004083,-0.00013298,0.00012445,-0.00003959,0.00009758,
 -0.00000314,0.00000407,0.00007772,-0.00000958,0.00000946,-0.00001021,-
 0.00002645,0.00052678,-0.00020187,-0.00011411,-0.00002451,0.00010191,0
 .00002843,0.00011398,0.00021775,0.00009502,0.00015490,-0.00037208,0.00
 011036,0.00009230,-0.00007454,-0.00000391,-0.00004758,0.00003337,-0.00
 009833,0.07017665,-0.01391224,0.07472019,-0.07100730,0.01417560,-0.000
 31909,0.00068445,-0.00062710,0.00007909,-0.00045989,-0.00010391,0.0000
 4128,-0.00045756,0.00004947,-0.00000519,0.00004868,0.00011940,-0.00194
 005,0.00077460,0.00033893,0.00010749,-0.00066144,-0.00029496,-0.000498
 10,-0.00106173,-0.00047184,-0.00054741,0.00253906,0.00217698,-0.000192
 69,0.00021157,-0.00002015,-0.00049059,0.00018065,0.00063306,-0.3863728
 9,0.07302455,-0.41962753,0.39013816,-0.07482293,0.41782766\\0.00001550
 ,0.00000409,0.00001159,-0.00004770,-0.00002993,0.00000292,-0.00000984,
 0.00001456,0.00000835,-0.00001478,0.00001154,-0.00000369,0.00001011,-0
 .00005767,0.00000607,0.00000224,-0.00000456,0.00000516,0.00000246,0.00
 005355,-0.00000379,-0.00116290,0.00050511,0.00034061,-0.00002221,0.000
 00853,0.00000561,-0.00001457,0.00001778,0.00000378,0.00107486,-0.00049
 678,-0.00056430,0.00016683,-0.00002622,0.00018771\\\@


 YOU ARE IN A MAZE OF TWISTY LITTLE PASSAGES.
 Job cpu time:  0 days  0 hours  5 minutes 28.4 seconds.
 File lengths (MBytes):  RWF=     29 Int=      0 D2E=      0 Chk=      3 Scr=      1
 Normal termination of Gaussian 09 at Wed Apr  1 00:25:11 2015.
