 Entering Gaussian System, Link 0=/share/apps/g09/g09
 Input=C3H7O2_62_b3631gd_286.gjf
 Output=C3H7O2_62_b3631gd_286.log
 Initial command:
 /share/apps/g09/l1.exe /state/partition1/Gau-29392.inp -scrdir=/state/partition1/
 Entering Link 1 = /share/apps/g09/l1.exe PID=     29393.
  
 Copyright (c) 1988,1990,1992,1993,1995,1998,2003,2009, Gaussian, Inc.
                  All Rights Reserved.
  
 This is part of the Gaussian(R) 09 program.  It is based on
 the Gaussian(R) 03 system (copyright 2003, Gaussian, Inc.),
 the Gaussian(R) 98 system (copyright 1998, Gaussian, Inc.),
 the Gaussian(R) 94 system (copyright 1995, Gaussian, Inc.),
 the Gaussian 92(TM) system (copyright 1992, Gaussian, Inc.),
 the Gaussian 90(TM) system (copyright 1990, Gaussian, Inc.),
 the Gaussian 88(TM) system (copyright 1988, Gaussian, Inc.),
 the Gaussian 86(TM) system (copyright 1986, Carnegie Mellon
 University), and the Gaussian 82(TM) system (copyright 1983,
 Carnegie Mellon University). Gaussian is a federally registered
 trademark of Gaussian, Inc.
  
 This software contains proprietary and confidential information,
 including trade secrets, belonging to Gaussian, Inc.
  
 This software is provided under written license and may be
 used, copied, transmitted, or stored only in accord with that
 written license.
  
 The following legend is applicable only to US Government
 contracts under FAR:
  
                    RESTRICTED RIGHTS LEGEND
  
 Use, reproduction and disclosure by the US Government is
 subject to restrictions as set forth in subparagraphs (a)
 and (c) of the Commercial Computer Software - Restricted
 Rights clause in FAR 52.227-19.
  
 Gaussian, Inc.
 340 Quinnipiac St., Bldg. 40, Wallingford CT 06492
  
  
 ---------------------------------------------------------------
 Warning -- This program may not be used in any manner that
 competes with the business of Gaussian, Inc. or will provide
 assistance to any competitor of Gaussian, Inc.  The licensee
 of this program is prohibited from giving any competitor of
 Gaussian, Inc. access to this program.  By using this program,
 the user acknowledges that Gaussian, Inc. is engaged in the
 business of creating and licensing software in the field of
 computational chemistry and represents and warrants to the
 licensee that it is not a competitor of Gaussian, Inc. and that
 it will not use this program in any manner prohibited above.
 ---------------------------------------------------------------
  

 Cite this work as:
 Gaussian 09, Revision A.01,
 M. J. Frisch, G. W. Trucks, H. B. Schlegel, G. E. Scuseria, 
 M. A. Robb, J. R. Cheeseman, G. Scalmani, V. Barone, B. Mennucci, 
 G. A. Petersson, H. Nakatsuji, M. Caricato, X. Li, H. P. Hratchian, 
 A. F. Izmaylov, J. Bloino, G. Zheng, J. L. Sonnenberg, M. Hada, 
 M. Ehara, K. Toyota, R. Fukuda, J. Hasegawa, M. Ishida, T. Nakajima, 
 Y. Honda, O. Kitao, H. Nakai, T. Vreven, J. A. Montgomery, Jr., 
 J. E. Peralta, F. Ogliaro, M. Bearpark, J. J. Heyd, E. Brothers, 
 K. N. Kudin, V. N. Staroverov, R. Kobayashi, J. Normand, 
 K. Raghavachari, A. Rendell, J. C. Burant, S. S. Iyengar, J. Tomasi, 
 M. Cossi, N. Rega, J. M. Millam, M. Klene, J. E. Knox, J. B. Cross, 
 V. Bakken, C. Adamo, J. Jaramillo, R. Gomperts, R. E. Stratmann, 
 O. Yazyev, A. J. Austin, R. Cammi, C. Pomelli, J. W. Ochterski, 
 R. L. Martin, K. Morokuma, V. G. Zakrzewski, G. A. Voth, 
 P. Salvador, J. J. Dannenberg, S. Dapprich, A. D. Daniels, 
 O. Farkas, J. B. Foresman, J. V. Ortiz, J. Cioslowski, 
 and D. J. Fox, Gaussian, Inc., Wallingford CT, 2009.
 
 ******************************************
 Gaussian 09:  EM64L-G09RevA.01  8-May-2009
                 1-Apr-2015 
 ******************************************
 %mem=28GB
 %nprocshared=12
 Will use up to   12 processors via shared memory.
 %chk=C3H7O2_62_b3631gd_286.chk
 ----------------------------------------
 #p ub3lyp/6-31g(d) opt=modredundant freq
 ----------------------------------------
 1/14=-1,18=120,19=15,26=3,38=1/1,3;
 2/9=110,12=2,17=6,18=5,40=1/2;
 3/5=1,6=6,7=1,11=2,16=1,25=1,30=1,71=1,74=-5,116=2/1,2,3;
 4//1;
 5/5=2,38=5/2;
 6/7=2,8=2,9=2,10=2,28=1/1;
 7//1,2,3,16;
 1/14=-1,18=20,19=15/3(2);
 2/9=110/2;
 99//99;
 2/9=110/2;
 3/5=1,6=6,7=1,11=2,16=1,25=1,30=1,71=1,74=-5,116=2/1,2,3;
 4/5=5,16=3/1;
 5/5=2,38=5/2;
 7//1,2,3,16;
 1/14=-1,18=20,19=15/3(-5);
 2/9=110/2;
 6/7=2,8=2,9=2,10=2,19=2,28=1/1;
 99/9=1/99;
 Leave Link    1 at Wed Apr  1 00:22:49 2015, MaxMem= 3758096384 cpu:       0.4
 (Enter /share/apps/g09/l101.exe)
 ---------------------------------------------------
 C3H7O2_62_b3631gd using cbs-qb3 to calculate energy
 ---------------------------------------------------
 Symbolic Z-matrix:
 Charge =  0 Multiplicity = 2
 C                    -1.76208  -1.07865   0.17888 
 H                    -0.80892  -1.59774   0.03262 
 H                    -2.54292  -1.64522  -0.34008 
 H                    -1.99202  -1.09623   1.25103 
 C                    -1.68307   0.36229  -0.34241 
 H                    -1.48755   0.36093  -1.42462 
 H                    -2.6777    0.83638  -0.23627 
 C                    -0.65998   1.19584   0.34916 
 H                    -0.32245   2.13307  -0.0823 
 H                    -0.39214   0.99905   1.3834 
 O                     1.73871  -0.09848  -0.52284 
 O                     2.61811  -0.25991   0.31064 
 
 NAtoms=     12 NQM=     12 NQMF=      0 NMic=      0 NMicF=      0 NTot=     12.
 The following ModRedundant input section has been read:
 B    8   11 F                                                                 
                    Isotopes and Nuclear Properties:
 (Nuclear quadrupole moments (NQMom) in fm**2, nuclear magnetic moments (NMagM)
  in nuclear magnetons)

  Atom         1           2           3           4           5           6           7           8           9          10
 IAtWgt=          12           1           1           1          12           1           1          12           1           1
 AtmWgt=  12.0000000   1.0078250   1.0078250   1.0078250  12.0000000   1.0078250   1.0078250  12.0000000   1.0078250   1.0078250
 NucSpn=           0           1           1           1           0           1           1           0           1           1
 AtZEff=   0.0000000   0.0000000   0.0000000   0.0000000   0.0000000   0.0000000   0.0000000   0.0000000   0.0000000   0.0000000
 NQMom=    0.0000000   0.0000000   0.0000000   0.0000000   0.0000000   0.0000000   0.0000000   0.0000000   0.0000000   0.0000000
 NMagM=    0.0000000   2.7928460   2.7928460   2.7928460   0.0000000   2.7928460   2.7928460   0.0000000   2.7928460   2.7928460

  Atom        11          12
 IAtWgt=          16          16
 AtmWgt=  15.9949146  15.9949146
 NucSpn=           0           0
 AtZEff=   0.0000000   0.0000000
 NQMom=    0.0000000   0.0000000
 NMagM=    0.0000000   0.0000000
 Leave Link  101 at Wed Apr  1 00:22:49 2015, MaxMem= 3758096384 cpu:       0.7
 (Enter /share/apps/g09/l103.exe)

 GradGradGradGradGradGradGradGradGradGradGradGradGradGradGradGradGradGrad
 Berny optimization.
 Initialization pass.
                           ----------------------------
                           !    Initial Parameters    !
                           ! (Angstroms and Degrees)  !
 --------------------------                            --------------------------
 ! Name  Definition              Value          Derivative Info.                !
 --------------------------------------------------------------------------------
 ! R1    R(1,2)                  1.0952         estimate D2E/DX2                !
 ! R2    R(1,3)                  1.0955         estimate D2E/DX2                !
 ! R3    R(1,4)                  1.0967         estimate D2E/DX2                !
 ! R4    R(1,5)                  1.5344         estimate D2E/DX2                !
 ! R5    R(1,11)                 3.7025         estimate D2E/DX2                !
 ! R6    R(2,11)                 3.0078         estimate D2E/DX2                !
 ! R7    R(2,12)                 3.6894         estimate D2E/DX2                !
 ! R8    R(5,6)                  1.0997         estimate D2E/DX2                !
 ! R9    R(5,7)                  1.1069         estimate D2E/DX2                !
 ! R10   R(5,8)                  1.4899         estimate D2E/DX2                !
 ! R11   R(5,11)                 3.4574         estimate D2E/DX2                !
 ! R12   R(6,11)                 3.3813         estimate D2E/DX2                !
 ! R13   R(8,9)                  1.0856         estimate D2E/DX2                !
 ! R14   R(8,10)                 1.0863         estimate D2E/DX2                !
 ! R15   R(8,11)                 2.8617         Frozen                          !
 ! R16   R(8,12)                 3.587          estimate D2E/DX2                !
 ! R17   R(9,11)                 3.0696         estimate D2E/DX2                !
 ! R18   R(10,11)                3.0625         estimate D2E/DX2                !
 ! R19   R(10,12)                3.4347         estimate D2E/DX2                !
 ! R20   R(11,12)                1.2223         estimate D2E/DX2                !
 ! A1    A(2,1,3)              108.1776         estimate D2E/DX2                !
 ! A2    A(2,1,4)              107.785          estimate D2E/DX2                !
 ! A3    A(2,1,5)              110.7896         estimate D2E/DX2                !
 ! A4    A(3,1,4)              107.7823         estimate D2E/DX2                !
 ! A5    A(3,1,5)              111.1904         estimate D2E/DX2                !
 ! A6    A(3,1,11)             136.1448         estimate D2E/DX2                !
 ! A7    A(4,1,5)              110.9771         estimate D2E/DX2                !
 ! A8    A(4,1,11)             112.8161         estimate D2E/DX2                !
 ! A9    A(1,2,12)             128.7933         estimate D2E/DX2                !
 ! A10   A(1,5,6)              110.0179         estimate D2E/DX2                !
 ! A11   A(1,5,7)              108.8662         estimate D2E/DX2                !
 ! A12   A(1,5,8)              113.7701         estimate D2E/DX2                !
 ! A13   A(6,5,7)              104.7516         estimate D2E/DX2                !
 ! A14   A(6,5,8)              109.5964         estimate D2E/DX2                !
 ! A15   A(7,5,8)              109.4449         estimate D2E/DX2                !
 ! A16   A(7,5,11)             162.0591         estimate D2E/DX2                !
 ! A17   A(5,8,9)              120.7998         estimate D2E/DX2                !
 ! A18   A(5,8,10)             120.6554         estimate D2E/DX2                !
 ! A19   A(5,8,12)             113.2976         estimate D2E/DX2                !
 ! A20   A(9,8,10)             117.2659         estimate D2E/DX2                !
 ! A21   A(9,8,12)              93.5525         estimate D2E/DX2                !
 ! A22   A(1,11,6)              35.348          estimate D2E/DX2                !
 ! A23   A(1,11,8)              43.0675         estimate D2E/DX2                !
 ! A24   A(1,11,9)              61.9891         estimate D2E/DX2                !
 ! A25   A(1,11,10)             47.0801         estimate D2E/DX2                !
 ! A26   A(1,11,12)            121.068          estimate D2E/DX2                !
 ! A27   A(2,11,5)              38.6019         estimate D2E/DX2                !
 ! A28   A(2,11,6)              46.2745         estimate D2E/DX2                !
 ! A29   A(2,11,8)              57.2624         estimate D2E/DX2                !
 ! A30   A(2,11,9)              76.5333         estimate D2E/DX2                !
 ! A31   A(2,11,10)             58.2876         estimate D2E/DX2                !
 ! A32   A(5,11,9)              39.7407         estimate D2E/DX2                !
 ! A33   A(5,11,10)             39.7473         estimate D2E/DX2                !
 ! A34   A(5,11,12)            133.9521         estimate D2E/DX2                !
 ! A35   A(6,11,8)              38.7431         estimate D2E/DX2                !
 ! A36   A(6,11,9)              45.4771         estimate D2E/DX2                !
 ! A37   A(6,11,10)             56.8676         estimate D2E/DX2                !
 ! A38   A(6,11,12)            152.4076         estimate D2E/DX2                !
 ! A39   A(9,11,10)             35.2064         estimate D2E/DX2                !
 ! A40   A(9,11,12)            118.7668         estimate D2E/DX2                !
 ! A41   A(2,12,8)              45.4992         estimate D2E/DX2                !
 ! A42   A(2,12,10)             48.8797         estimate D2E/DX2                !
 ! D1    D(3,1,2,12)           158.6939         estimate D2E/DX2                !
 ! D2    D(4,1,2,12)           -85.0169         estimate D2E/DX2                !
 ! D3    D(5,1,2,12)            36.5794         estimate D2E/DX2                !
 ! D4    D(2,1,5,6)             62.3059         estimate D2E/DX2                !
 ! D5    D(2,1,5,7)            176.5663         estimate D2E/DX2                !
 ! D6    D(2,1,5,8)            -61.0958         estimate D2E/DX2                !
 ! D7    D(3,1,5,6)            -58.0305         estimate D2E/DX2                !
 ! D8    D(3,1,5,7)             56.2299         estimate D2E/DX2                !
 ! D9    D(3,1,5,8)            178.5679         estimate D2E/DX2                !
 ! D10   D(4,1,5,6)           -177.9933         estimate D2E/DX2                !
 ! D11   D(4,1,5,7)            -63.7329         estimate D2E/DX2                !
 ! D12   D(4,1,5,8)             58.6051         estimate D2E/DX2                !
 ! D13   D(3,1,11,6)            68.3275         estimate D2E/DX2                !
 ! D14   D(3,1,11,8)           130.5548         estimate D2E/DX2                !
 ! D15   D(3,1,11,9)           119.8031         estimate D2E/DX2                !
 ! D16   D(3,1,11,10)          159.5263         estimate D2E/DX2                !
 ! D17   D(3,1,11,12)         -131.782          estimate D2E/DX2                !
 ! D18   D(4,1,11,6)          -135.3153         estimate D2E/DX2                !
 ! D19   D(4,1,11,8)           -73.0879         estimate D2E/DX2                !
 ! D20   D(4,1,11,9)           -83.8397         estimate D2E/DX2                !
 ! D21   D(4,1,11,10)          -44.1165         estimate D2E/DX2                !
 ! D22   D(4,1,11,12)           24.5752         estimate D2E/DX2                !
 ! D23   D(1,2,12,8)            -8.3219         estimate D2E/DX2                !
 ! D24   D(1,2,12,10)           15.3508         estimate D2E/DX2                !
 ! D25   D(1,5,8,9)            163.9425         estimate D2E/DX2                !
 ! D26   D(1,5,8,10)           -29.3258         estimate D2E/DX2                !
 ! D27   D(1,5,8,12)            54.3554         estimate D2E/DX2                !
 ! D28   D(6,5,8,9)             40.3117         estimate D2E/DX2                !
 ! D29   D(6,5,8,10)          -152.9566         estimate D2E/DX2                !
 ! D30   D(6,5,8,12)           -69.2755         estimate D2E/DX2                !
 ! D31   D(7,5,8,9)            -74.0389         estimate D2E/DX2                !
 ! D32   D(7,5,8,10)            92.6927         estimate D2E/DX2                !
 ! D33   D(7,5,8,12)           176.3739         estimate D2E/DX2                !
 ! D34   D(7,5,11,2)           158.0042         estimate D2E/DX2                !
 ! D35   D(7,5,11,9)             0.6763         estimate D2E/DX2                !
 ! D36   D(7,5,11,10)           57.1361         estimate D2E/DX2                !
 ! D37   D(7,5,11,12)           84.1332         estimate D2E/DX2                !
 ! D38   D(5,8,12,2)           -23.9925         estimate D2E/DX2                !
 ! D39   D(9,8,12,2)          -149.817          estimate D2E/DX2                !
 --------------------------------------------------------------------------------
 Trust Radius=3.00D-01 FncErr=1.00D-07 GrdErr=1.00D-06
 Number of steps in this run= 100 maximum allowed number of steps= 100.
 GradGradGradGradGradGradGradGradGradGradGradGradGradGradGradGradGradGrad

 Leave Link  103 at Wed Apr  1 00:22:49 2015, MaxMem= 3758096384 cpu:       0.0
 (Enter /share/apps/g09/l202.exe)
                          Input orientation:                          
 ---------------------------------------------------------------------
 Center     Atomic      Atomic             Coordinates (Angstroms)
 Number     Number       Type             X           Y           Z
 ---------------------------------------------------------------------
      1          6           0       -1.762081   -1.078645    0.178877
      2          1           0       -0.808919   -1.597737    0.032621
      3          1           0       -2.542922   -1.645219   -0.340083
      4          1           0       -1.992018   -1.096228    1.251030
      5          6           0       -1.683066    0.362294   -0.342405
      6          1           0       -1.487550    0.360928   -1.424624
      7          1           0       -2.677700    0.836379   -0.236273
      8          6           0       -0.659984    1.195840    0.349161
      9          1           0       -0.322450    2.133068   -0.082295
     10          1           0       -0.392140    0.999048    1.383404
     11          8           0        1.738705   -0.098483   -0.522836
     12          8           0        2.618107   -0.259914    0.310639
 ---------------------------------------------------------------------
                    Distance matrix (angstroms):
                    1          2          3          4          5
     1  C    0.000000
     2  H    1.095155   0.000000
     3  H    1.095463   1.774240   0.000000
     4  H    1.096673   1.770806   1.771024   0.000000
     5  C    1.534367   2.178646   2.183911   2.182149   0.000000
     6  H    2.172315   2.533865   2.512900   3.088190   1.099739
     7  H    2.162874   3.080514   2.487422   2.533219   1.106941
     8  C    2.533159   2.815395   3.477374   2.800225   1.489886
     9  H    3.529284   3.764142   4.390035   3.872153   2.248238
    10  H    2.764857   2.956622   3.819479   2.639567   2.247301
    11  O    3.702516   3.007770   4.556108   4.249752   3.457367
    12  O    4.457996   3.689386   5.383190   4.778808   4.394735
                    6          7          8          9         10
     6  H    0.000000
     7  H    1.747767   0.000000
     8  C    2.127970   2.131460   0.000000
     9  H    2.509937   2.693012   1.085578   0.000000
    10  H    3.080932   2.805993   1.086336   1.854490   0.000000
    11  O    3.381272   4.523353   2.861706   3.069569   3.062487
    12  O    4.500334   5.435673   3.587002   3.811514   3.434734
                   11         12
    11  O    0.000000
    12  O    1.222329   0.000000
 Stoichiometry    C3H7O2(2)
 Framework group  C1[X(C3H7O2)]
 Deg. of freedom    30
 Full point group                 C1      NOp   1
 Largest Abelian subgroup         C1      NOp   1
 Largest concise Abelian subgroup C1      NOp   1
                         Standard orientation:                         
 ---------------------------------------------------------------------
 Center     Atomic      Atomic             Coordinates (Angstroms)
 Number     Number       Type             X           Y           Z
 ---------------------------------------------------------------------
      1          6           0       -1.762081   -1.078645    0.178877
      2          1           0       -0.808919   -1.597737    0.032621
      3          1           0       -2.542922   -1.645219   -0.340083
      4          1           0       -1.992018   -1.096228    1.251030
      5          6           0       -1.683066    0.362294   -0.342405
      6          1           0       -1.487550    0.360928   -1.424624
      7          1           0       -2.677700    0.836379   -0.236273
      8          6           0       -0.659984    1.195840    0.349161
      9          1           0       -0.322450    2.133068   -0.082295
     10          1           0       -0.392140    0.999048    1.383404
     11          8           0        1.738705   -0.098483   -0.522836
     12          8           0        2.618107   -0.259914    0.310639
 ---------------------------------------------------------------------
 Rotational constants (GHZ):      8.1908917      1.8790232      1.6797042
 Leave Link  202 at Wed Apr  1 00:22:49 2015, MaxMem= 3758096384 cpu:       0.4
 (Enter /share/apps/g09/l301.exe)
 Standard basis: 6-31G(d) (6D, 7F)
 Ernie: Thresh=  0.10000D-02 Tol=  0.10000D-05 Strict=F.
 There are    89 symmetry adapted basis functions of A   symmetry.
 Integral buffers will be    131072 words long.
 Raffenetti 2 integral format.
 Two-electron integral symmetry is turned on.
    89 basis functions,   168 primitive gaussians,    89 cartesian basis functions
    21 alpha electrons       20 beta electrons
       nuclear repulsion energy       160.2090726437 Hartrees.
 IExCor=  402 DFT=T Ex+Corr=B3LYP ExCW=0 ScaHFX=  0.200000
 ScaDFX=  0.800000  0.720000  1.000000  0.810000 ScalE2=  1.000000  1.000000
 IRadAn=      0 IRanWt=     -1 IRanGd=            0 ICorTp=0
 NAtoms=   12 NActive=   12 NUniq=   12 SFac= 7.50D-01 NAtFMM=   80 NAOKFM=F Big=F
 Leave Link  301 at Wed Apr  1 00:22:49 2015, MaxMem= 3758096384 cpu:       0.4
 (Enter /share/apps/g09/l302.exe)
 NPDir=0 NMtPBC=     1 NCelOv=     1 NCel=       1 NClECP=     1 NCelD=      1
         NCelK=      1 NCelE2=     1 NClLst=     1 CellRange=     0.0.
 One-electron integrals computed using PRISM.
 NBasis=    89 RedAO= T  NBF=    89
 NBsUse=    89 1.00D-06 NBFU=    89
 Precomputing XC quadrature grid using
 IXCGrd= 2 IRadAn=           0 IRanWt=          -1 IRanGd=           0 AccXCQ= 1.00D-10.
 NRdTot=     744 NPtTot=       94340 NUsed=       99717 NTot=       99749
 NSgBfM=    89    89    89    89    89 NAtAll=    12    12.
 Leave Link  302 at Wed Apr  1 00:22:50 2015, MaxMem= 3758096384 cpu:       3.4
 (Enter /share/apps/g09/l303.exe)
 DipDrv:  MaxL=1.
 Leave Link  303 at Wed Apr  1 00:22:50 2015, MaxMem= 3758096384 cpu:       0.8
 (Enter /share/apps/g09/l401.exe)
 Harris functional with IExCor=  402 diagonalized for initial guess.
 ExpMin= 1.61D-01 ExpMax= 5.48D+03 ExpMxC= 8.25D+02 IAcc=1 IRadAn=         1 AccDes= 0.00D+00
 HarFok:  IExCor=  402 AccDes= 0.00D+00 IRadAn=         1 IDoV= 1
 ScaDFX=  1.000000  1.000000  1.000000  1.000000
 FoFCou: FMM=F IPFlag=           0 FMFlag=      100000 FMFlg1=           0
         NFxFlg=           0 DoJE=T BraDBF=F KetDBF=T FulRan=T
         Omega=  0.000000  0.000000  1.000000  0.000000  0.000000 ICntrl=     500 IOpCl=  0
         NMat0=    1 NMatS0=    1 NMatT0=    0 NMatD0=    1 NMtDS0=    0 NMtDT0=    0
         I1Cent=           4 NGrid=           0.
 Petite list used in FoFCou.
 Harris En= -268.814020964262    
 Initial guess orbital symmetries:
 Alpha Orbitals:
       Occupied  (A) (A) (A) (A) (A) (A) (A) (A) (A) (A) (A) (A)
                 (A) (A) (A) (A) (A) (A) (A) (A) (A)
       Virtual   (A) (A) (A) (A) (A) (A) (A) (A) (A) (A) (A) (A)
                 (A) (A) (A) (A) (A) (A) (A) (A) (A) (A) (A) (A)
                 (A) (A) (A) (A) (A) (A) (A) (A) (A) (A) (A) (A)
                 (A) (A) (A) (A) (A) (A) (A) (A) (A) (A) (A) (A)
                 (A) (A) (A) (A) (A) (A) (A) (A) (A) (A) (A) (A)
                 (A) (A) (A) (A) (A) (A) (A) (A)
 Beta  Orbitals:
       Occupied  (A) (A) (A) (A) (A) (A) (A) (A) (A) (A) (A) (A)
                 (A) (A) (A) (A) (A) (A) (A) (A)
       Virtual   (A) (A) (A) (A) (A) (A) (A) (A) (A) (A) (A) (A)
                 (A) (A) (A) (A) (A) (A) (A) (A) (A) (A) (A) (A)
                 (A) (A) (A) (A) (A) (A) (A) (A) (A) (A) (A) (A)
                 (A) (A) (A) (A) (A) (A) (A) (A) (A) (A) (A) (A)
                 (A) (A) (A) (A) (A) (A) (A) (A) (A) (A) (A) (A)
                 (A) (A) (A) (A) (A) (A) (A) (A) (A)
 The electronic state of the initial guess is 2-A.
 Initial guess <Sx>= 0.0000 <Sy>= 0.0000 <Sz>= 0.5000 <S**2>= 0.7500 S= 0.5000
 Leave Link  401 at Wed Apr  1 00:22:50 2015, MaxMem= 3758096384 cpu:       3.5
 (Enter /share/apps/g09/l502.exe)
 UHF open shell SCF:
 Requested convergence on RMS density matrix=1.00D-08 within 128 cycles.
 Requested convergence on MAX density matrix=1.00D-06.
 Requested convergence on             energy=1.00D-06.
 No special actions if energy rises.
 Using DIIS extrapolation, IDIIS=  1040.
 Integral symmetry usage will be decided dynamically.
        99596 words used for storage of precomputed grid.
 Keep R1 and R2 ints in memory in canonical form, NReq=17096789.
 IEnd=      143254 IEndB=      143254 NGot=  3758096384 MDV=  3741933723
 LenX=  3741933723 LenY=  3741925361
 Symmetry not used in FoFDir.
 MinBra= 0 MaxBra= 2 Meth= 1.
 IRaf=       0 NMat=   1 IRICut=       1 DoRegI=T DoRafI=F ISym2E= 0 JSym2E=0.
 Integral accuracy reduced to 1.0D-05 until final iterations.

 Cycle   1  Pass 0  IDiag  1:
 E= -268.246739911602    
 DIIS: error= 6.62D-02 at cycle   1 NSaved=   1.
 NSaved= 1 IEnMin= 1 EnMin= -268.246739911602     IErMin= 1 ErrMin= 6.62D-02
 ErrMax= 6.62D-02 EMaxC= 1.00D-01 BMatC= 1.37D+00 BMatP= 1.37D+00
 IDIUse=3 WtCom= 3.38D-01 WtEn= 6.62D-01
 Coeff-Com:  0.100D+01
 Coeff-En:   0.100D+01
 Coeff:      0.100D+01
 Gap=     0.218 Goal=   None    Shift=    0.000
 Gap=    -0.510 Goal=   None    Shift=    0.000
 GapD=   -0.510 DampG=0.250 DampE=0.500 DampFc=0.2500 IDamp=-1.
 Damping current iteration by 2.50D-01
 RMSDP=2.97D-02 MaxDP=5.18D-01              OVMax= 9.95D-01

 Cycle   2  Pass 0  IDiag  1:
 E= -268.333687164002     Delta-E=       -0.086947252400 Rises=F Damp=T
 DIIS: error= 2.41D-02 at cycle   2 NSaved=   2.
 NSaved= 2 IEnMin= 2 EnMin= -268.333687164002     IErMin= 2 ErrMin= 2.41D-02
 ErrMax= 2.41D-02 EMaxC= 1.00D-01 BMatC= 1.59D-01 BMatP= 1.37D+00
 IDIUse=3 WtCom= 7.59D-01 WtEn= 2.41D-01
 Coeff-Com:  0.660D-01 0.934D+00
 Coeff-En:   0.403D+00 0.597D+00
 Coeff:      0.147D+00 0.853D+00
 Gap=    -0.020 Goal=   None    Shift=    0.000
 Gap=     0.605 Goal=   None    Shift=    0.000
 RMSDP=9.58D-03 MaxDP=1.40D-01 DE=-8.69D-02 OVMax= 7.52D-01

 Cycle   3  Pass 0  IDiag  1:
 E= -268.638770625290     Delta-E=       -0.305083461287 Rises=F Damp=F
 DIIS: error= 3.38D-02 at cycle   3 NSaved=   3.
 NSaved= 3 IEnMin= 3 EnMin= -268.638770625290     IErMin= 2 ErrMin= 2.41D-02
 ErrMax= 3.38D-02 EMaxC= 1.00D-01 BMatC= 3.25D-01 BMatP= 1.59D-01
 IDIUse=2 WtCom= 0.00D+00 WtEn= 1.00D+00
 Coeff-En:   0.272D+00 0.000D+00 0.728D+00
 Coeff:      0.272D+00 0.000D+00 0.728D+00
 Gap=     0.037 Goal=   None    Shift=    0.000
 Gap=     0.114 Goal=   None    Shift=    0.000
 RMSDP=7.06D-03 MaxDP=1.61D-01 DE=-3.05D-01 OVMax= 5.49D-01

 Cycle   4  Pass 0  IDiag  1:
 E= -268.640360058067     Delta-E=       -0.001589432778 Rises=F Damp=F
 DIIS: error= 5.19D-02 at cycle   4 NSaved=   4.
 NSaved= 4 IEnMin= 4 EnMin= -268.640360058067     IErMin= 2 ErrMin= 2.41D-02
 ErrMax= 5.19D-02 EMaxC= 1.00D-01 BMatC= 3.61D-01 BMatP= 1.59D-01
 IDIUse=2 WtCom= 0.00D+00 WtEn= 1.00D+00
 Coeff-En:   0.000D+00 0.000D+00 0.498D+00 0.502D+00
 Coeff:      0.000D+00 0.000D+00 0.498D+00 0.502D+00
 Gap=     0.056 Goal=   None    Shift=    0.000
 Gap=     0.047 Goal=   None    Shift=    0.000
 RMSDP=5.44D-03 MaxDP=1.05D-01 DE=-1.59D-03 OVMax= 4.58D-01

 Cycle   5  Pass 0  IDiag  1:
 E= -268.733866339135     Delta-E=       -0.093506281067 Rises=F Damp=F
 DIIS: error= 2.71D-02 at cycle   5 NSaved=   5.
 NSaved= 5 IEnMin= 5 EnMin= -268.733866339135     IErMin= 2 ErrMin= 2.41D-02
 ErrMax= 2.71D-02 EMaxC= 1.00D-01 BMatC= 9.59D-02 BMatP= 1.59D-01
 IDIUse=3 WtCom= 7.29D-01 WtEn= 2.71D-01
 Coeff-Com:  0.249D-01-0.298D-01 0.267D+00 0.340D+00 0.399D+00
 Coeff-En:   0.000D+00 0.000D+00 0.000D+00 0.281D+00 0.719D+00
 Coeff:      0.182D-01-0.217D-01 0.194D+00 0.324D+00 0.485D+00
 Gap=     0.078 Goal=   None    Shift=    0.000
 Gap=     0.057 Goal=   None    Shift=    0.000
 RMSDP=3.41D-03 MaxDP=7.15D-02 DE=-9.35D-02 OVMax= 3.50D-01

 Cycle   6  Pass 0  IDiag  1:
 E= -268.768770628059     Delta-E=       -0.034904288924 Rises=F Damp=F
 DIIS: error= 1.57D-02 at cycle   6 NSaved=   6.
 NSaved= 6 IEnMin= 6 EnMin= -268.768770628059     IErMin= 6 ErrMin= 1.57D-02
 ErrMax= 1.57D-02 EMaxC= 1.00D-01 BMatC= 2.68D-02 BMatP= 9.59D-02
 IDIUse=3 WtCom= 8.43D-01 WtEn= 1.57D-01
 Coeff-Com: -0.102D-01 0.363D-01 0.105D+00 0.119D+00 0.276D+00 0.474D+00
 Coeff-En:   0.000D+00 0.000D+00 0.000D+00 0.000D+00 0.149D+00 0.851D+00
 Coeff:     -0.860D-02 0.306D-01 0.887D-01 0.999D-01 0.256D+00 0.533D+00
 Gap=     0.114 Goal=   None    Shift=    0.000
 Gap=     0.081 Goal=   None    Shift=    0.000
 RMSDP=1.65D-03 MaxDP=2.19D-02 DE=-3.49D-02 OVMax= 1.60D-01

 Cycle   7  Pass 0  IDiag  1:
 E= -268.784890605831     Delta-E=       -0.016119977773 Rises=F Damp=F
 DIIS: error= 7.27D-03 at cycle   7 NSaved=   7.
 NSaved= 7 IEnMin= 7 EnMin= -268.784890605831     IErMin= 7 ErrMin= 7.27D-03
 ErrMax= 7.27D-03 EMaxC= 1.00D-01 BMatC= 6.64D-03 BMatP= 2.68D-02
 IDIUse=3 WtCom= 9.27D-01 WtEn= 7.27D-02
 Coeff-Com: -0.894D-02 0.532D-01 0.799D-01 0.488D-01 0.123D+00 0.228D+00
 Coeff-Com:  0.476D+00
 Coeff-En:   0.000D+00 0.000D+00 0.000D+00 0.000D+00 0.000D+00 0.000D+00
 Coeff-En:   0.100D+01
 Coeff:     -0.829D-02 0.493D-01 0.741D-01 0.453D-01 0.114D+00 0.211D+00
 Coeff:      0.514D+00
 Gap=     0.141 Goal=   None    Shift=    0.000
 Gap=     0.091 Goal=   None    Shift=    0.000
 RMSDP=1.04D-03 MaxDP=1.72D-02 DE=-1.61D-02 OVMax= 9.04D-02

 Cycle   8  Pass 0  IDiag  1:
 E= -268.789013963533     Delta-E=       -0.004123357701 Rises=F Damp=F
 DIIS: error= 5.95D-03 at cycle   8 NSaved=   8.
 NSaved= 8 IEnMin= 8 EnMin= -268.789013963533     IErMin= 8 ErrMin= 5.95D-03
 ErrMax= 5.95D-03 EMaxC= 1.00D-01 BMatC= 8.65D-03 BMatP= 6.64D-03
 IDIUse=3 WtCom= 9.27D-01 WtEn= 7.27D-02
 Coeff-Com:  0.342D-03 0.369D-01 0.117D+00 0.800D-01-0.443D-01-0.627D+00
 Coeff-Com:  0.496D+00 0.942D+00
 Coeff-En:   0.000D+00 0.000D+00 0.000D+00 0.000D+00 0.000D+00 0.000D+00
 Coeff-En:   0.000D+00 0.100D+01
 Coeff:      0.317D-03 0.342D-01 0.108D+00 0.742D-01-0.411D-01-0.582D+00
 Coeff:      0.460D+00 0.946D+00
 Gap=     0.199 Goal=   None    Shift=    0.000
 Gap=     0.103 Goal=   None    Shift=    0.000
 RMSDP=1.15D-03 MaxDP=1.30D-02 DE=-4.12D-03 OVMax= 8.42D-02

 Cycle   9  Pass 0  IDiag  1:
 E= -268.793509100239     Delta-E=       -0.004495136707 Rises=F Damp=F
 DIIS: error= 2.06D-03 at cycle   9 NSaved=   9.
 NSaved= 9 IEnMin= 9 EnMin= -268.793509100239     IErMin= 9 ErrMin= 2.06D-03
 ErrMax= 2.06D-03 EMaxC= 1.00D-01 BMatC= 1.87D-03 BMatP= 6.64D-03
 IDIUse=3 WtCom= 9.79D-01 WtEn= 2.06D-02
 Coeff-Com: -0.153D-01 0.119D-01 0.427D-01 0.818D-01 0.765D-01-0.136D+00
 Coeff-Com: -0.374D+00 0.125D+00 0.119D+01
 Coeff-En:   0.000D+00 0.000D+00 0.000D+00 0.000D+00 0.000D+00 0.000D+00
 Coeff-En:   0.000D+00 0.000D+00 0.100D+01
 Coeff:     -0.150D-01 0.117D-01 0.418D-01 0.801D-01 0.750D-01-0.133D+00
 Coeff:     -0.367D+00 0.123D+00 0.118D+01
 Gap=     0.229 Goal=   None    Shift=    0.000
 Gap=     0.099 Goal=   None    Shift=    0.000
 RMSDP=3.62D-04 MaxDP=4.77D-03 DE=-4.50D-03 OVMax= 2.30D-02

 Cycle  10  Pass 0  IDiag  1:
 E= -268.794159737132     Delta-E=       -0.000650636892 Rises=F Damp=F
 DIIS: error= 1.03D-03 at cycle  10 NSaved=  10.
 NSaved=10 IEnMin=10 EnMin= -268.794159737132     IErMin=10 ErrMin= 1.03D-03
 ErrMax= 1.03D-03 EMaxC= 1.00D-01 BMatC= 3.12D-04 BMatP= 1.87D-03
 IDIUse=3 WtCom= 9.90D-01 WtEn= 1.03D-02
 Coeff-Com: -0.116D-01 0.713D-02 0.301D-02 0.355D-01 0.667D-01 0.117D+00
 Coeff-Com: -0.323D+00-0.214D+00 0.574D+00 0.746D+00
 Coeff-En:   0.000D+00 0.000D+00 0.000D+00 0.000D+00 0.000D+00 0.000D+00
 Coeff-En:   0.000D+00 0.000D+00 0.000D+00 0.100D+01
 Coeff:     -0.115D-01 0.706D-02 0.298D-02 0.351D-01 0.660D-01 0.116D+00
 Coeff:     -0.320D+00-0.212D+00 0.568D+00 0.749D+00
 Gap=     0.237 Goal=   None    Shift=    0.000
 Gap=     0.099 Goal=   None    Shift=    0.000
 RMSDP=1.01D-04 MaxDP=1.74D-03 DE=-6.51D-04 OVMax= 3.65D-03

 Cycle  11  Pass 0  IDiag  1:
 E= -268.794239223215     Delta-E=       -0.000079486083 Rises=F Damp=F
 DIIS: error= 2.25D-04 at cycle  11 NSaved=  11.
 NSaved=11 IEnMin=11 EnMin= -268.794239223215     IErMin=11 ErrMin= 2.25D-04
 ErrMax= 2.25D-04 EMaxC= 1.00D-01 BMatC= 2.99D-05 BMatP= 3.12D-04
 IDIUse=3 WtCom= 9.98D-01 WtEn= 2.25D-03
 Coeff-Com: -0.185D-02 0.499D-03-0.265D-02 0.706D-02 0.103D-01 0.389D-01
 Coeff-Com: -0.922D-01-0.765D-01 0.208D-01 0.188D+00 0.908D+00
 Coeff-En:   0.000D+00 0.000D+00 0.000D+00 0.000D+00 0.000D+00 0.000D+00
 Coeff-En:   0.000D+00 0.000D+00 0.000D+00 0.000D+00 0.100D+01
 Coeff:     -0.184D-02 0.498D-03-0.265D-02 0.704D-02 0.102D-01 0.388D-01
 Coeff:     -0.920D-01-0.764D-01 0.208D-01 0.188D+00 0.908D+00
 Gap=     0.246 Goal=   None    Shift=    0.000
 Gap=     0.102 Goal=   None    Shift=    0.000
 RMSDP=9.64D-05 MaxDP=1.28D-03 DE=-7.95D-05 OVMax= 6.81D-03

 Cycle  12  Pass 0  IDiag  1:
 E= -268.794259817757     Delta-E=       -0.000020594542 Rises=F Damp=F
 DIIS: error= 9.89D-05 at cycle  12 NSaved=  12.
 NSaved=12 IEnMin=12 EnMin= -268.794259817757     IErMin=12 ErrMin= 9.89D-05
 ErrMax= 9.89D-05 EMaxC= 1.00D-01 BMatC= 3.50D-06 BMatP= 2.99D-05
 IDIUse=1 WtCom= 1.00D+00 WtEn= 0.00D+00
 Coeff-Com:  0.733D-03-0.108D-02 0.260D-03 0.576D-03-0.295D-02-0.954D-02
 Coeff-Com: -0.680D-02 0.212D-01 0.104D-01-0.210D-01-0.655D-01 0.107D+01
 Coeff:      0.733D-03-0.108D-02 0.260D-03 0.576D-03-0.295D-02-0.954D-02
 Coeff:     -0.680D-02 0.212D-01 0.104D-01-0.210D-01-0.655D-01 0.107D+01
 Gap=     0.247 Goal=   None    Shift=    0.000
 Gap=     0.103 Goal=   None    Shift=    0.000
 RMSDP=2.63D-05 MaxDP=5.64D-04 DE=-2.06D-05 OVMax= 2.63D-03

 Cycle  13  Pass 0  IDiag  1:
 E= -268.794261104011     Delta-E=       -0.000001286254 Rises=F Damp=F
 DIIS: error= 3.82D-05 at cycle  13 NSaved=  13.
 NSaved=13 IEnMin=13 EnMin= -268.794261104011     IErMin=13 ErrMin= 3.82D-05
 ErrMax= 3.82D-05 EMaxC= 1.00D-01 BMatC= 5.63D-07 BMatP= 3.50D-06
 IDIUse=1 WtCom= 1.00D+00 WtEn= 0.00D+00
 Coeff-Com:  0.286D-03-0.321D-03 0.159D-03-0.559D-03-0.649D-03-0.182D-02
 Coeff-Com:  0.263D-02 0.874D-02 0.705D-02-0.423D-02-0.538D-01 0.963D-01
 Coeff-Com:  0.946D+00
 Coeff:      0.286D-03-0.321D-03 0.159D-03-0.559D-03-0.649D-03-0.182D-02
 Coeff:      0.263D-02 0.874D-02 0.705D-02-0.423D-02-0.538D-01 0.963D-01
 Coeff:      0.946D+00
 Gap=     0.246 Goal=   None    Shift=    0.000
 Gap=     0.103 Goal=   None    Shift=    0.000
 RMSDP=8.10D-06 MaxDP=1.05D-04 DE=-1.29D-06 OVMax= 5.88D-04

 Initial convergence to 1.0D-05 achieved.  Increase integral accuracy.
 Cycle  14  Pass 1  IDiag  1:
 E= -268.794286728049     Delta-E=       -0.000025624038 Rises=F Damp=F
 DIIS: error= 8.09D-06 at cycle   1 NSaved=   1.
 NSaved= 1 IEnMin= 1 EnMin= -268.794286728049     IErMin= 1 ErrMin= 8.09D-06
 ErrMax= 8.09D-06 EMaxC= 1.00D-01 BMatC= 3.97D-08 BMatP= 3.97D-08
 IDIUse=1 WtCom= 1.00D+00 WtEn= 0.00D+00
 Coeff-Com:  0.100D+01
 Coeff:      0.100D+01
 Gap=     0.246 Goal=   None    Shift=    0.000
 Gap=     0.103 Goal=   None    Shift=    0.000
 RMSDP=8.10D-06 MaxDP=1.05D-04 DE=-2.56D-05 OVMax= 6.82D-05

 Cycle  15  Pass 1  IDiag  1:
 E= -268.794286738821     Delta-E=       -0.000000010772 Rises=F Damp=F
 DIIS: error= 1.09D-05 at cycle   2 NSaved=   2.
 NSaved= 2 IEnMin= 2 EnMin= -268.794286738821     IErMin= 1 ErrMin= 8.09D-06
 ErrMax= 1.09D-05 EMaxC= 1.00D-01 BMatC= 1.72D-08 BMatP= 3.97D-08
 IDIUse=1 WtCom= 1.00D+00 WtEn= 0.00D+00
 Coeff-Com:  0.331D+00 0.669D+00
 Coeff:      0.331D+00 0.669D+00
 Gap=     0.246 Goal=   None    Shift=    0.000
 Gap=     0.103 Goal=   None    Shift=    0.000
 RMSDP=1.03D-06 MaxDP=3.04D-05 DE=-1.08D-08 OVMax= 5.44D-05

 Cycle  16  Pass 1  IDiag  1:
 E= -268.794286736118     Delta-E=        0.000000002704 Rises=F Damp=F
 DIIS: error= 1.73D-05 at cycle   3 NSaved=   3.
 NSaved= 3 IEnMin= 2 EnMin= -268.794286738821     IErMin= 1 ErrMin= 8.09D-06
 ErrMax= 1.73D-05 EMaxC= 1.00D-01 BMatC= 3.53D-08 BMatP= 1.72D-08
 IDIUse=1 WtCom= 1.00D+00 WtEn= 0.00D+00
 Coeff-Com: -0.117D-01 0.597D+00 0.414D+00
 Coeff:     -0.117D-01 0.597D+00 0.414D+00
 Gap=     0.246 Goal=   None    Shift=    0.000
 Gap=     0.103 Goal=   None    Shift=    0.000
 RMSDP=6.18D-07 MaxDP=1.98D-05 DE= 2.70D-09 OVMax= 3.49D-05

 Cycle  17  Pass 1  IDiag  1:
 E= -268.794286742237     Delta-E=       -0.000000006119 Rises=F Damp=F
 DIIS: error= 1.19D-06 at cycle   4 NSaved=   4.
 NSaved= 4 IEnMin= 4 EnMin= -268.794286742237     IErMin= 4 ErrMin= 1.19D-06
 ErrMax= 1.19D-06 EMaxC= 1.00D-01 BMatC= 7.47D-10 BMatP= 1.72D-08
 IDIUse=1 WtCom= 1.00D+00 WtEn= 0.00D+00
 Coeff-Com: -0.297D-01 0.266D+00 0.212D+00 0.552D+00
 Coeff:     -0.297D-01 0.266D+00 0.212D+00 0.552D+00
 Gap=     0.246 Goal=   None    Shift=    0.000
 Gap=     0.103 Goal=   None    Shift=    0.000
 RMSDP=1.56D-07 MaxDP=3.16D-06 DE=-6.12D-09 OVMax= 7.64D-06

 Cycle  18  Pass 1  IDiag  1:
 E= -268.794286742414     Delta-E=       -0.000000000177 Rises=F Damp=F
 DIIS: error= 3.60D-07 at cycle   5 NSaved=   5.
 NSaved= 5 IEnMin= 5 EnMin= -268.794286742414     IErMin= 5 ErrMin= 3.60D-07
 ErrMax= 3.60D-07 EMaxC= 1.00D-01 BMatC= 5.45D-11 BMatP= 7.47D-10
 IDIUse=1 WtCom= 1.00D+00 WtEn= 0.00D+00
 Coeff-Com: -0.740D-02-0.191D-01-0.119D-01 0.158D+00 0.880D+00
 Coeff:     -0.740D-02-0.191D-01-0.119D-01 0.158D+00 0.880D+00
 Gap=     0.246 Goal=   None    Shift=    0.000
 Gap=     0.103 Goal=   None    Shift=    0.000
 RMSDP=6.29D-08 MaxDP=1.57D-06 DE=-1.77D-10 OVMax= 2.58D-06

 Cycle  19  Pass 1  IDiag  1:
 E= -268.794286742434     Delta-E=       -0.000000000020 Rises=F Damp=F
 DIIS: error= 1.26D-07 at cycle   6 NSaved=   6.
 NSaved= 6 IEnMin= 6 EnMin= -268.794286742434     IErMin= 6 ErrMin= 1.26D-07
 ErrMax= 1.26D-07 EMaxC= 1.00D-01 BMatC= 7.60D-12 BMatP= 5.45D-11
 IDIUse=1 WtCom= 1.00D+00 WtEn= 0.00D+00
 Coeff-Com:  0.354D-02-0.543D-01-0.441D-01-0.577D-01 0.258D+00 0.895D+00
 Coeff:      0.354D-02-0.543D-01-0.441D-01-0.577D-01 0.258D+00 0.895D+00
 Gap=     0.246 Goal=   None    Shift=    0.000
 Gap=     0.103 Goal=   None    Shift=    0.000
 RMSDP=2.94D-08 MaxDP=5.80D-07 DE=-2.05D-11 OVMax= 1.07D-06

 Cycle  20  Pass 1  IDiag  1:
 E= -268.794286742437     Delta-E=       -0.000000000003 Rises=F Damp=F
 DIIS: error= 6.01D-08 at cycle   7 NSaved=   7.
 NSaved= 7 IEnMin= 7 EnMin= -268.794286742437     IErMin= 7 ErrMin= 6.01D-08
 ErrMax= 6.01D-08 EMaxC= 1.00D-01 BMatC= 1.42D-12 BMatP= 7.60D-12
 IDIUse=1 WtCom= 1.00D+00 WtEn= 0.00D+00
 Coeff-Com:  0.212D-02-0.246D-01-0.201D-01-0.401D-01 0.607D-01 0.434D+00
 Coeff-Com:  0.588D+00
 Coeff:      0.212D-02-0.246D-01-0.201D-01-0.401D-01 0.607D-01 0.434D+00
 Coeff:      0.588D+00
 Gap=     0.246 Goal=   None    Shift=    0.000
 Gap=     0.103 Goal=   None    Shift=    0.000
 RMSDP=9.89D-09 MaxDP=2.07D-07 DE=-2.61D-12 OVMax= 7.02D-07

 SCF Done:  E(UB3LYP) =  -268.794286742     A.U. after   20 cycles
             Convg  =    0.9886D-08             -V/T =  2.0092
 <Sx>= 0.0000 <Sy>= 0.0000 <Sz>= 0.5000 <S**2>= 1.6580 S= 0.8813
 <L.S>= 0.000000000000E+00
 KE= 2.663325800623D+02 PE=-9.486984876416D+02 EE= 2.533625481931D+02
 Annihilation of the first spin contaminant:
 S**2 before annihilation     1.6580,   after     0.7780
 Leave Link  502 at Wed Apr  1 00:22:57 2015, MaxMem= 3758096384 cpu:      69.0
 (Enter /share/apps/g09/l601.exe)
 Copying SCF densities to generalized density rwf, IOpCl= 1 IROHF=0.

 **********************************************************************

            Population analysis using the SCF density.

 **********************************************************************

 Orbital symmetries:
 Alpha Orbitals:
       Occupied  (A) (A) (A) (A) (A) (A) (A) (A) (A) (A) (A) (A)
                 (A) (A) (A) (A) (A) (A) (A) (A) (A)
       Virtual   (A) (A) (A) (A) (A) (A) (A) (A) (A) (A) (A) (A)
                 (A) (A) (A) (A) (A) (A) (A) (A) (A) (A) (A) (A)
                 (A) (A) (A) (A) (A) (A) (A) (A) (A) (A) (A) (A)
                 (A) (A) (A) (A) (A) (A) (A) (A) (A) (A) (A) (A)
                 (A) (A) (A) (A) (A) (A) (A) (A) (A) (A) (A) (A)
                 (A) (A) (A) (A) (A) (A) (A) (A)
 Beta  Orbitals:
       Occupied  (A) (A) (A) (A) (A) (A) (A) (A) (A) (A) (A) (A)
                 (A) (A) (A) (A) (A) (A) (A) (A)
       Virtual   (A) (A) (A) (A) (A) (A) (A) (A) (A) (A) (A) (A)
                 (A) (A) (A) (A) (A) (A) (A) (A) (A) (A) (A) (A)
                 (A) (A) (A) (A) (A) (A) (A) (A) (A) (A) (A) (A)
                 (A) (A) (A) (A) (A) (A) (A) (A) (A) (A) (A) (A)
                 (A) (A) (A) (A) (A) (A) (A) (A) (A) (A) (A) (A)
                 (A) (A) (A) (A) (A) (A) (A) (A) (A)
 The electronic state is 2-A.
 Alpha  occ. eigenvalues --  -19.29491 -19.28751 -10.19199 -10.18394 -10.17641
 Alpha  occ. eigenvalues --   -1.27490  -0.82000  -0.77613  -0.66122  -0.57259
 Alpha  occ. eigenvalues --   -0.53781  -0.53444  -0.52674  -0.45073  -0.43669
 Alpha  occ. eigenvalues --   -0.40571  -0.35408  -0.34942  -0.34295  -0.29105
 Alpha  occ. eigenvalues --   -0.28828
 Alpha virt. eigenvalues --   -0.04221   0.10239   0.14471   0.14689   0.15527
 Alpha virt. eigenvalues --    0.17043   0.18637   0.20054   0.20900   0.24338
 Alpha virt. eigenvalues --    0.28147   0.50819   0.51597   0.53794   0.57534
 Alpha virt. eigenvalues --    0.58758   0.62503   0.66943   0.69946   0.72033
 Alpha virt. eigenvalues --    0.75696   0.78733   0.79315   0.84224   0.85651
 Alpha virt. eigenvalues --    0.86772   0.88891   0.89777   0.91250   0.92355
 Alpha virt. eigenvalues --    0.94667   0.95797   0.99080   1.00332   1.07456
 Alpha virt. eigenvalues --    1.22534   1.34734   1.43714   1.49477   1.50551
 Alpha virt. eigenvalues --    1.51745   1.53634   1.56396   1.59678   1.72101
 Alpha virt. eigenvalues --    1.85164   1.90779   1.91428   1.93500   1.95175
 Alpha virt. eigenvalues --    2.01459   2.08689   2.17663   2.24258   2.33355
 Alpha virt. eigenvalues --    2.36751   2.40555   2.42931   2.54753   2.55378
 Alpha virt. eigenvalues --    2.61808   2.68580   2.83469   3.20512   3.54925
 Alpha virt. eigenvalues --    4.12782   4.25306   4.45044
  Beta  occ. eigenvalues --  -19.26637 -19.25948 -10.19700 -10.19117 -10.17662
  Beta  occ. eigenvalues --   -1.21874  -0.78545  -0.73462  -0.67740  -0.58555
  Beta  occ. eigenvalues --   -0.48980  -0.45624  -0.44554  -0.43843  -0.43514
  Beta  occ. eigenvalues --   -0.41054  -0.35975  -0.35481  -0.34588  -0.20091
  Beta virt. eigenvalues --   -0.09820  -0.09781   0.10073   0.13444   0.14358
  Beta virt. eigenvalues --    0.15280   0.17038   0.18430   0.19647   0.23743
  Beta virt. eigenvalues --    0.25036   0.27584   0.50511   0.51274   0.52287
  Beta virt. eigenvalues --    0.56623   0.58299   0.59646   0.66723   0.70450
  Beta virt. eigenvalues --    0.73211   0.76072   0.79957   0.81719   0.85629
  Beta virt. eigenvalues --    0.86507   0.88504   0.89515   0.91265   0.92568
  Beta virt. eigenvalues --    0.93649   0.94138   0.95433   0.99474   1.02587
  Beta virt. eigenvalues --    1.08969   1.23094   1.36590   1.42153   1.49753
  Beta virt. eigenvalues --    1.53481   1.54722   1.58089   1.60294   1.60797
  Beta virt. eigenvalues --    1.67160   1.83929   1.91372   1.94003   1.97211
  Beta virt. eigenvalues --    1.98365   2.00004   2.06596   2.14949   2.23959
  Beta virt. eigenvalues --    2.32830   2.35479   2.42227   2.44013   2.58826
  Beta virt. eigenvalues --    2.59305   2.61137   2.68089   2.85921   3.24711
  Beta virt. eigenvalues --    3.59063   4.11343   4.23994   4.44601
          Condensed to atoms (all electrons):
              1          2          3          4          5          6
     1  C    5.064245   0.377575   0.371251   0.378456   0.378340  -0.035940
     2  H    0.377575   0.560953  -0.029273  -0.031768  -0.035234  -0.004816
     3  H    0.371251  -0.029273   0.574601  -0.031067  -0.028582  -0.002785
     4  H    0.378456  -0.031768  -0.031067   0.574670  -0.035621   0.005046
     5  C    0.378340  -0.035234  -0.028582  -0.035621   4.914202   0.377736
     6  H   -0.035940  -0.004816  -0.002785   0.005046   0.377736   0.592952
     7  H   -0.040543   0.005342  -0.002383  -0.004520   0.369569  -0.042115
     8  C   -0.046787  -0.001357   0.004428  -0.004128   0.392375  -0.041244
     9  H    0.003898   0.000021  -0.000154  -0.000009  -0.031506  -0.003748
    10  H   -0.005518   0.000205   0.000049   0.004143  -0.039497   0.004451
    11  O   -0.001071   0.003388   0.000009  -0.000007   0.000203   0.000050
    12  O    0.000036  -0.000103   0.000000   0.000002   0.000012   0.000005
              7          8          9         10         11         12
     1  C   -0.040543  -0.046787   0.003898  -0.005518  -0.001071   0.000036
     2  H    0.005342  -0.001357   0.000021   0.000205   0.003388  -0.000103
     3  H   -0.002383   0.004428  -0.000154   0.000049   0.000009   0.000000
     4  H   -0.004520  -0.004128  -0.000009   0.004143  -0.000007   0.000002
     5  C    0.369569   0.392375  -0.031506  -0.039497   0.000203   0.000012
     6  H   -0.042115  -0.041244  -0.003748   0.004451   0.000050   0.000005
     7  H    0.613667  -0.049184   0.000507   0.000734   0.000043  -0.000001
     8  C   -0.049184   5.279935   0.367497   0.372775   0.014336  -0.002552
     9  H    0.000507   0.367497   0.553133  -0.037262  -0.000101   0.000023
    10  H    0.000734   0.372775  -0.037262   0.551178  -0.000412   0.000435
    11  O    0.000043   0.014336  -0.000101  -0.000412   7.887868   0.111342
    12  O   -0.000001  -0.002552   0.000023   0.000435   0.111342   7.922608
 Mulliken atomic charges:
              1
     1  C   -0.443942
     2  H    0.155067
     3  H    0.143906
     4  H    0.144803
     5  C   -0.261999
     6  H    0.150408
     7  H    0.148885
     8  C   -0.286095
     9  H    0.147701
    10  H    0.148720
    11  O   -0.015648
    12  O   -0.031805
 Sum of Mulliken atomic charges =   0.00000
 Mulliken charges with hydrogens summed into heavy atoms:
              1
     1  C   -0.000166
     5  C    0.037294
     8  C    0.010325
    11  O   -0.015648
    12  O   -0.031805
 Sum of Mulliken charges with hydrogens summed into heavy atoms =   0.00000
          Atomic-Atomic Spin Densities.
              1          2          3          4          5          6
     1  C   -0.016471   0.004144   0.002618  -0.000836  -0.006819  -0.005855
     2  H    0.004144  -0.003025  -0.001390   0.000989   0.000754   0.001211
     3  H    0.002618  -0.001390  -0.000612   0.000549  -0.000338   0.000872
     4  H   -0.000836   0.000989   0.000549  -0.000521  -0.000604  -0.000296
     5  C   -0.006819   0.000754  -0.000338  -0.000604   0.060414  -0.006050
     6  H   -0.005855   0.001211   0.000872  -0.000296  -0.006050  -0.034354
     7  H    0.007443  -0.000801  -0.001754   0.001394  -0.012276   0.013954
     8  C    0.009574  -0.004120  -0.000328   0.000141   0.036274   0.012272
     9  H   -0.000038   0.000031   0.000001  -0.000019   0.000272  -0.000873
    10  H   -0.000766   0.000115   0.000046  -0.000166  -0.000275  -0.000190
    11  O   -0.000197   0.000571   0.000003   0.000008   0.000263  -0.000021
    12  O    0.000046  -0.000225   0.000000  -0.000002  -0.000017   0.000000
              7          8          9         10         11         12
     1  C    0.007443   0.009574  -0.000038  -0.000766  -0.000197   0.000046
     2  H   -0.000801  -0.004120   0.000031   0.000115   0.000571  -0.000225
     3  H   -0.001754  -0.000328   0.000001   0.000046   0.000003   0.000000
     4  H    0.001394   0.000141  -0.000019  -0.000166   0.000008  -0.000002
     5  C   -0.012276   0.036274   0.000272  -0.000275   0.000263  -0.000017
     6  H    0.013954   0.012272  -0.000873  -0.000190  -0.000021   0.000000
     7  H   -0.094395   0.029228   0.000610   0.000643  -0.000006   0.000000
     8  C    0.029228  -1.106616   0.006542   0.007878  -0.003985   0.001239
     9  H    0.000610   0.006542   0.042882  -0.002277   0.000044  -0.000013
    10  H    0.000643   0.007878  -0.002277   0.042209  -0.000417   0.000070
    11  O   -0.000006  -0.003985   0.000044  -0.000417   1.283463  -0.309121
    12  O    0.000000   0.001239  -0.000013   0.000070  -0.309121   1.267587
 Mulliken atomic spin densities:
              1
     1  C   -0.007156
     2  H   -0.001747
     3  H   -0.000336
     4  H    0.000636
     5  C    0.071597
     6  H   -0.019332
     7  H   -0.055960
     8  C   -1.011903
     9  H    0.047162
    10  H    0.046871
    11  O    0.970603
    12  O    0.959565
 Sum of Mulliken atomic spin densities =   1.00000
 Electronic spatial extent (au):  <R**2>=            704.2740
 Charge=              0.0000 electrons
 Dipole moment (field-independent basis, Debye):
    X=             -1.0084    Y=              0.2676    Z=             -0.0233  Tot=              1.0436
 Quadrupole moment (field-independent basis, Debye-Ang):
   XX=            -31.5561   YY=            -30.1942   ZZ=            -30.2218
   XY=              0.1954   XZ=              0.0363   YZ=             -0.1001
 Traceless Quadrupole moment (field-independent basis, Debye-Ang):
   XX=             -0.8987   YY=              0.4632   ZZ=              0.4356
   XY=              0.1954   XZ=              0.0363   YZ=             -0.1001
 Octapole moment (field-independent basis, Debye-Ang**2):
  XXX=             14.8460  YYY=             -0.2750  ZZZ=             -0.3975  XYY=              7.8371
  XXY=             -0.5560  XXZ=             -2.2366  XZZ=              6.2234  YZZ=             -0.4807
  YYZ=             -1.5313  XYZ=              0.2815
 Hexadecapole moment (field-independent basis, Debye-Ang**3):
 XXXX=           -620.5797 YYYY=           -171.3057 ZZZZ=            -69.3111 XXXY=             -1.7068
 XXXZ=             -1.8883 YYYX=             -3.2562 YYYZ=             -1.7353 ZZZX=             -0.5073
 ZZZY=             -0.3939 XXYY=           -131.5485 XXZZ=           -114.7888 YYZZ=            -41.8451
 XXYZ=              0.5523 YYXZ=              1.3896 ZZXY=             -0.5645
 N-N= 1.602090726437D+02 E-N=-1.412589107007D+03  KE= 3.968617889580D+02
                          Isotropic Fermi Contact Couplings
        Atom                 a.u.       MegaHertz       Gauss      10(-4) cm-1
     1  C(13)             -0.00976     -10.97692      -3.91684      -3.66151
     2  H(1)               0.00047       2.08561       0.74420       0.69569
     3  H(1)               0.00024       1.06778       0.38101       0.35617
     4  H(1)               0.00030       1.32141       0.47151       0.44078
     5  C(13)              0.02367      26.60455       9.49316       8.87432
     6  H(1)              -0.01050     -46.93392     -16.74719     -15.65547
     7  H(1)              -0.02925    -130.73602     -46.64986     -43.60884
     8  C(13)             -0.11530    -129.61475     -46.24976     -43.23483
     9  H(1)               0.01411      63.07526      22.50682      21.03964
    10  H(1)               0.01402      62.65717      22.35764      20.90018
    11  O(17)              0.11895     -72.10911     -25.73032     -24.05301
    12  O(17)              0.13357     -80.97229     -28.89293     -27.00945
 --------------------------------------------------------
       Center         ----  Spin Dipole Couplings  ----
                      3XX-RR        3YY-RR        3ZZ-RR
 --------------------------------------------------------
     1   Atom        0.013320     -0.017027      0.003706
     2   Atom        0.015675     -0.014338     -0.001337
     3   Atom        0.004489     -0.005262      0.000773
     4   Atom        0.006492     -0.007515      0.001023
     5   Atom       -0.001736     -0.001956      0.003692
     6   Atom        0.011858      0.000679     -0.012537
     7   Atom       -0.008408      0.003480      0.004928
     8   Atom       -0.383492      0.090805      0.292686
     9   Atom        0.020001     -0.047495      0.027494
    10   Atom        0.027676      0.039083     -0.066759
    11   Atom       -0.608365      1.088606     -0.480241
    12   Atom       -0.615902      1.170260     -0.554358
 --------------------------------------------------------
                        XY            XZ            YZ
 --------------------------------------------------------
     1   Atom       -0.009082      0.000215      0.004913
     2   Atom        0.007834     -0.002487     -0.002244
     3   Atom       -0.001891     -0.000700     -0.001204
     4   Atom       -0.003637     -0.000192      0.003726
     5   Atom       -0.007081     -0.002247     -0.009410
     6   Atom       -0.006013     -0.005542     -0.008361
     7   Atom       -0.005092     -0.007281     -0.003312
     8   Atom        0.594965      0.419374     -0.280771
     9   Atom       -0.023522      0.033472      0.037511
    10   Atom        0.023978     -0.024816      0.018164
    11   Atom        0.322639     -1.653621      0.285854
    12   Atom        0.411072     -1.577643      0.193419
 --------------------------------------------------------


 ---------------------------------------------------------------------------------
              Anisotropic Spin Dipole Couplings in Principal Axis System
 ---------------------------------------------------------------------------------

       Atom             a.u.   MegaHertz   Gauss  10(-4) cm-1        Axes

              Baa    -0.0205    -2.749    -0.981    -0.917  0.2556  0.9470 -0.1946
     1 C(13)  Bbb     0.0046     0.611     0.218     0.204  0.1437  0.1618  0.9763
              Bcc     0.0159     2.138     0.763     0.713  0.9560 -0.2775 -0.0947
 
              Baa    -0.0164    -8.766    -3.128    -2.924 -0.2279  0.9679  0.1063
     2 H(1)   Bbb    -0.0016    -0.863    -0.308    -0.288  0.1719 -0.0675  0.9828
              Bcc     0.0180     9.629     3.436     3.212  0.9584  0.2423 -0.1510
 
              Baa    -0.0059    -3.135    -1.119    -1.046  0.1888  0.9626  0.1942
     3 H(1)   Bbb     0.0010     0.522     0.186     0.174  0.0800 -0.2122  0.9739
              Bcc     0.0049     2.613     0.932     0.872  0.9788 -0.1683 -0.1171
 
              Baa    -0.0096    -5.129    -1.830    -1.711  0.2051  0.9248 -0.3203
     4 H(1)   Bbb     0.0020     1.085     0.387     0.362  0.2563  0.2652  0.9295
              Bcc     0.0076     4.044     1.443     1.349  0.9446 -0.2727 -0.1826
 
              Baa    -0.0133    -1.786    -0.637    -0.596  0.5261  0.7127  0.4640
     5 C(13)  Bbb     0.0021     0.276     0.099     0.092  0.8206 -0.2821 -0.4971
              Bcc     0.0112     1.510     0.539     0.504  0.2234 -0.6423  0.7332
 
              Baa    -0.0185    -9.879    -3.525    -3.295  0.2458  0.4508  0.8581
     6 H(1)   Bbb     0.0039     2.079     0.742     0.693  0.2663  0.8198 -0.5069
              Bcc     0.0146     7.801     2.783     2.602  0.9320 -0.3531 -0.0815
 
              Baa    -0.0137    -7.315    -2.610    -2.440  0.8579  0.3300  0.3938
     7 H(1)   Bbb     0.0053     2.813     1.004     0.938 -0.4152  0.8968  0.1530
              Bcc     0.0084     4.501     1.606     1.502 -0.3027 -0.2947  0.9064
 
              Baa    -0.9860  -132.314   -47.213   -44.135  0.7703 -0.5213 -0.3671
     8 C(13)  Bbb     0.4901    65.762    23.465    21.936 -0.0577 -0.6304  0.7741
              Bcc     0.4960    66.552    23.747    22.199  0.6350  0.5751  0.5157
 
              Baa    -0.0760   -40.556   -14.471   -13.528  0.3509  0.8383 -0.4173
     9 H(1)   Bbb     0.0167     8.917     3.182     2.974  0.7291 -0.5242 -0.4400
              Bcc     0.0593    31.639    11.290    10.554  0.5876  0.1499  0.7952
 
              Baa    -0.0777   -41.455   -14.792   -13.828  0.2677 -0.2015  0.9422
    10 H(1)   Bbb     0.0197    10.488     3.742     3.499  0.7332 -0.5918 -0.3349
              Bcc     0.0580    30.967    11.050    10.329  0.6251  0.7805 -0.0107
 
              Baa    -2.2546   163.145    58.214    54.419  0.7152 -0.1278  0.6871
    11 O(17)  Bbb     1.1031   -79.817   -28.481   -26.624 -0.6009  0.3897  0.6979
              Bcc     1.1516   -83.328   -29.733   -27.795  0.3569  0.9120 -0.2019
 
              Baa    -2.2175   160.456    57.255    53.522  0.7124 -0.1259  0.6904
    12 O(17)  Bbb     0.9204   -66.599   -23.764   -22.215 -0.5860  0.4347  0.6839
              Bcc     1.2971   -93.858   -33.491   -31.307  0.3862  0.8918 -0.2359
 

 ---------------------------------------------------------------------------------

 No NMR shielding tensors so no spin-rotation constants.
 Leave Link  601 at Wed Apr  1 00:22:58 2015, MaxMem= 3758096384 cpu:      10.6
 (Enter /share/apps/g09/l701.exe)
 Compute integral first derivatives.
 ... and contract with generalized density number  0.
 Leave Link  701 at Wed Apr  1 00:22:59 2015, MaxMem= 3758096384 cpu:       5.1
 (Enter /share/apps/g09/l702.exe)
 L702 exits ... SP integral derivatives will be done elsewhere.
 Leave Link  702 at Wed Apr  1 00:22:59 2015, MaxMem= 3758096384 cpu:       0.1
 (Enter /share/apps/g09/l703.exe)
 Compute integral first derivatives, UseDBF=F ICtDFT=           0.
 Integral derivatives from FoFDir, PRISM(SPDF).
 Calling FoFJK, ICntrl=      2127 FMM=F ISym2X=0 I1Cent= 0 IOpClX= 1 NMat=1 NMatS=1 NMatT=0.
 FoFCou: FMM=F IPFlag=           0 FMFlag=      100000 FMFlg1=         800
         NFxFlg=           0 DoJE=F BraDBF=F KetDBF=F FulRan=T
         Omega=  0.000000  0.000000  1.000000  0.000000  0.000000 ICntrl=    2127 IOpCl=  1
         NMat0=    1 NMatS0=    1 NMatT0=    0 NMatD0=    1 NMtDS0=    0 NMtDT0=    0
         I1Cent=           0 NGrid=           0.
 Symmetry not used in FoFCou.
 Leave Link  703 at Wed Apr  1 00:23:00 2015, MaxMem= 3758096384 cpu:      13.1
 (Enter /share/apps/g09/l716.exe)
 Dipole        =-3.96752374D-01 1.05274648D-01-9.15652658D-03
 ***** Axes restored to original set *****
 -------------------------------------------------------------------
 Center     Atomic                   Forces (Hartrees/Bohr)
 Number     Number              X              Y              Z
 -------------------------------------------------------------------
      1        6          -0.000054810    0.000073936   -0.000071623
      2        1           0.000074060   -0.000044622    0.000000857
      3        1           0.000002716   -0.000046858   -0.000003580
      4        1           0.000014183    0.000003121    0.000001462
      5        6          -0.000002430    0.000064441   -0.000020931
      6        1          -0.000048207   -0.000070012   -0.000044285
      7        1          -0.000095061   -0.000085841   -0.000033081
      8        6           0.001587545   -0.000686720   -0.000417523
      9        1           0.000121321   -0.000019117   -0.000089003
     10        1           0.000084083   -0.000082171    0.000035255
     11        8           0.000038388    0.000589905    0.002294076
     12        8          -0.001721789    0.000303939   -0.001651625
 -------------------------------------------------------------------
 Cartesian Forces:  Max     0.002294076 RMS     0.000638055
 Leave Link  716 at Wed Apr  1 00:23:00 2015, MaxMem= 3758096384 cpu:       0.2
 (Enter /share/apps/g09/l103.exe)

 GradGradGradGradGradGradGradGradGradGradGradGradGradGradGradGradGradGrad
 Berny optimization.
 Internal  Forces:  Max     0.001510156 RMS     0.000212192
 Search for a local minimum.
 Step number   1 out of a maximum of  100
 All quantities printed in internal units (Hartrees-Bohrs-Radians)
 RMS Force = .19833D-03 SwitMx=.10000D-02 MixMth= 2
 Mixed Optimization -- En-DIIS/RFO-DIIS
 Second derivative matrix not updated -- first step.
     Eigenvalues ---    0.00442   0.00957   0.01053   0.01437   0.01936
     Eigenvalues ---    0.02016   0.02282   0.02879   0.03551   0.04346
     Eigenvalues ---    0.05774   0.06990   0.07143   0.08193   0.09487
     Eigenvalues ---    0.10655   0.11912   0.12817   0.14294   0.25084
     Eigenvalues ---    0.26332   0.29459   0.29924   0.31324   0.32204
     Eigenvalues ---    0.32926   0.34053   0.34189   0.668951000.00000
     Eigenvalues --- 1000.000001000.000001000.000001000.000001000.00000
     Eigenvalues --- 1000.000001000.000001000.000001000.000001000.00000
     Eigenvalues --- 1000.000001000.000001000.000001000.000001000.00000
     Eigenvalues --- 1000.000001000.000001000.000001000.000001000.00000
     Eigenvalues --- 1000.000001000.000001000.000001000.000001000.00000
     Eigenvalues --- 1000.000001000.000001000.000001000.000001000.00000
     Eigenvalues --- 1000.000001000.000001000.000001000.000001000.00000
     Eigenvalues --- 1000.000001000.000001000.000001000.000001000.00000
     Eigenvalues --- 1000.000001000.000001000.000001000.000001000.00000
     Eigenvalues --- 1000.000001000.000001000.000001000.000001000.00000
     Eigenvalues --- 1000.000001000.000001000.000001000.000001000.00000
     Eigenvalues --- 1000.000001000.000001000.000001000.000001000.00000
     Eigenvalues --- 1000.000001000.000001000.000001000.000001000.00000
     Eigenvalues --- 1000.000001000.000001000.000001000.000001000.00000
     Eigenvalues --- 1000.00000
 RFO step:  Lambda=-7.35386881D-06 EMin= 4.41746507D-03
 Linear search not attempted -- first point.
 Iteration  1 RMS(Cart)=  0.00050810 RMS(Int)=  0.00000056
 Iteration  2 RMS(Cart)=  0.00000031 RMS(Int)=  0.00000034
 Iteration  1 RMS(Cart)=  0.00000000 RMS(Int)=  0.00000001
 Variable       Old X    -DE/DX   Delta X   Delta X   Delta X     New X
                                 (Linear)    (Quad)   (Total)
    R1        2.06954  -0.00006   0.00000   0.00017   0.00017   2.06972
    R2        2.07012   0.00002   0.00000   0.00007   0.00007   2.07019
    R3        2.07241   0.00000   0.00000   0.00000   0.00000   2.07241
    R4        2.89953  -0.00004   0.00000  -0.00006  -0.00006   2.89948
    R5        6.99674   0.00006   0.00000  -0.00035  -0.00035   6.99639
    R6        5.68386   0.00009   0.00000  -0.00061  -0.00061   5.68325
    R7        6.97193  -0.00026   0.00000  -0.00251  -0.00251   6.96942
    R8        2.07821  -0.00006   0.00000   0.00008   0.00008   2.07828
    R9        2.09181   0.00005   0.00000   0.00014   0.00014   2.09196
   R10        2.81548   0.00015   0.00000   0.00058   0.00058   2.81605
   R11        6.53348  -0.00008   0.00000   0.00067   0.00067   6.53415
   R12        6.38968   0.00010   0.00000   0.00167   0.00167   6.39134
   R13        2.05145   0.00008   0.00000   0.00012   0.00012   2.05156
   R14        2.05288   0.00013   0.00000   0.00017   0.00017   2.05305
   R15        5.40784  -0.00044   0.00000   0.00000   0.00000   5.40784
   R16        6.77845  -0.00080   0.00000  -0.00120  -0.00120   6.77725
   R17        5.80065  -0.00026   0.00000  -0.00237  -0.00237   5.79828
   R18        5.78726  -0.00025   0.00000  -0.00342  -0.00342   5.78384
   R19        6.49071  -0.00013   0.00000  -0.00421  -0.00421   6.48650
   R20        2.30987  -0.00151   0.00000  -0.00251  -0.00251   2.30736
    A1        1.88806  -0.00005   0.00000  -0.00021  -0.00021   1.88784
    A2        1.88120   0.00010   0.00000  -0.00014  -0.00014   1.88107
    A3        1.93364  -0.00010   0.00000   0.00025   0.00025   1.93389
    A4        1.88116   0.00000   0.00000  -0.00005  -0.00005   1.88110
    A5        1.94064   0.00004   0.00000   0.00026   0.00026   1.94090
    A6        2.37618   0.00010   0.00000   0.00000   0.00000   2.37617
    A7        1.93692   0.00001   0.00000  -0.00012  -0.00012   1.93679
    A8        1.96901  -0.00009   0.00000  -0.00015  -0.00015   1.96886
    A9        2.24787  -0.00005   0.00000   0.00016   0.00016   2.24803
   A10        1.92017  -0.00005   0.00000  -0.00057  -0.00057   1.91960
   A11        1.90007  -0.00005   0.00000  -0.00029  -0.00029   1.89979
   A12        1.98566   0.00007   0.00000  -0.00011  -0.00011   1.98555
   A13        1.82826  -0.00005   0.00000  -0.00020  -0.00020   1.82806
   A14        1.91282  -0.00003   0.00000   0.00047   0.00047   1.91329
   A15        1.91017   0.00009   0.00000   0.00069   0.00069   1.91087
   A16        2.82847  -0.00001   0.00000   0.00066   0.00066   2.82912
   A17        2.10835   0.00007   0.00000   0.00007   0.00007   2.10842
   A18        2.10583  -0.00018   0.00000   0.00008   0.00008   2.10591
   A19        1.97742  -0.00005   0.00000  -0.00020  -0.00020   1.97721
   A20        2.04668   0.00006   0.00000   0.00051   0.00051   2.04718
   A21        1.63280  -0.00004   0.00000  -0.00106  -0.00106   1.63174
   A22        0.61694  -0.00003   0.00000  -0.00014  -0.00014   0.61680
   A23        0.75167   0.00004   0.00000   0.00009   0.00009   0.75176
   A24        1.08191   0.00007   0.00000   0.00021   0.00021   1.08213
   A25        0.82170   0.00002   0.00000   0.00012   0.00012   0.82182
   A26        2.11304   0.00039   0.00000  -0.00001  -0.00001   2.11302
   A27        0.67373  -0.00003   0.00000   0.00003   0.00003   0.67376
   A28        0.80764  -0.00008   0.00000  -0.00014  -0.00014   0.80750
   A29        0.99942   0.00004   0.00000   0.00011   0.00011   0.99953
   A30        1.33576   0.00006   0.00000   0.00024   0.00024   1.33599
   A31        1.01731   0.00005   0.00000   0.00010   0.00009   1.01741
   A32        0.69361   0.00006   0.00000   0.00014   0.00014   0.69375
   A33        0.69372   0.00002   0.00000   0.00018   0.00018   0.69390
   A34        2.33790   0.00043   0.00000   0.00017   0.00017   2.33808
   A35        0.67619   0.00001   0.00000   0.00006   0.00006   0.67625
   A36        0.79372   0.00005   0.00000   0.00014   0.00014   0.79386
   A37        0.99253   0.00002   0.00000   0.00022   0.00022   0.99274
   A38        2.66001   0.00042   0.00000   0.00012   0.00012   2.66013
   A39        0.61447   0.00007   0.00000   0.00046   0.00046   0.61493
   A40        2.07287   0.00031   0.00000   0.00055   0.00055   2.07342
   A41        0.79411   0.00007   0.00000   0.00027   0.00027   0.79438
   A42        0.85311   0.00006   0.00000   0.00018   0.00018   0.85330
    D1        2.76973  -0.00010   0.00000   0.00004   0.00004   2.76977
    D2       -1.48382  -0.00008   0.00000  -0.00020  -0.00020  -1.48403
    D3        0.63843  -0.00006   0.00000  -0.00029  -0.00029   0.63814
    D4        1.08744  -0.00007   0.00000   0.00054   0.00054   1.08798
    D5        3.08166  -0.00018   0.00000  -0.00017  -0.00017   3.08150
    D6       -1.06632  -0.00005   0.00000   0.00044   0.00044  -1.06588
    D7       -1.01282   0.00003   0.00000   0.00047   0.00047  -1.01235
    D8        0.98140  -0.00008   0.00000  -0.00023  -0.00023   0.98116
    D9        3.11660   0.00005   0.00000   0.00037   0.00037   3.11697
   D10       -3.10657   0.00000   0.00000   0.00045   0.00045  -3.10612
   D11       -1.11235  -0.00011   0.00000  -0.00026  -0.00026  -1.11261
   D12        1.02285   0.00003   0.00000   0.00035   0.00035   1.02320
   D13        1.19254  -0.00004   0.00000   0.00053   0.00053   1.19307
   D14        2.27861  -0.00005   0.00000   0.00061   0.00061   2.27922
   D15        2.09096  -0.00006   0.00000   0.00042   0.00042   2.09138
   D16        2.78426   0.00000   0.00000   0.00092   0.00092   2.78518
   D17       -2.30003   0.00022   0.00000   0.00119   0.00119  -2.29884
   D18       -2.36170  -0.00005   0.00000  -0.00021  -0.00021  -2.36191
   D19       -1.27562  -0.00006   0.00000  -0.00013  -0.00013  -1.27575
   D20       -1.46328  -0.00007   0.00000  -0.00032  -0.00032  -1.46360
   D21       -0.76998  -0.00001   0.00000   0.00018   0.00018  -0.76979
   D22        0.42892   0.00020   0.00000   0.00045   0.00045   0.42937
   D23       -0.14524   0.00004   0.00000   0.00027   0.00027  -0.14497
   D24        0.26792   0.00010   0.00000   0.00033   0.00033   0.26825
   D25        2.86134   0.00006   0.00000  -0.00193  -0.00193   2.85940
   D26       -0.51183  -0.00017   0.00000   0.00151   0.00151  -0.51032
   D27        0.94868   0.00011   0.00000  -0.00040  -0.00039   0.94829
   D28        0.70357   0.00009   0.00000  -0.00147  -0.00147   0.70210
   D29       -2.66960  -0.00014   0.00000   0.00197   0.00197  -2.66762
   D30       -1.20909   0.00014   0.00000   0.00007   0.00007  -1.20901
   D31       -1.29222   0.00011   0.00000  -0.00187  -0.00187  -1.29409
   D32        1.61779  -0.00012   0.00000   0.00157   0.00157   1.61937
   D33        3.07831   0.00016   0.00000  -0.00033  -0.00033   3.07798
   D34        2.75769   0.00007   0.00000  -0.00042  -0.00042   2.75727
   D35        0.01180  -0.00013   0.00000  -0.00088  -0.00088   0.01093
   D36        0.99721  -0.00006   0.00000  -0.00031  -0.00031   0.99690
   D37        1.46840  -0.00003   0.00000   0.00010   0.00010   1.46850
   D38       -0.41875  -0.00001   0.00000   0.00007   0.00007  -0.41868
   D39       -2.61480  -0.00005   0.00000   0.00067   0.00067  -2.61413
         Item               Value     Threshold  Converged?
 Maximum Force            0.001609     0.000450     NO 
 RMS     Force            0.000198     0.000300     YES
 Maximum Displacement     0.002263     0.001800     NO 
 RMS     Displacement     0.000508     0.001200     YES
 Predicted change in Energy=-3.677420D-06
 GradGradGradGradGradGradGradGradGradGradGradGradGradGradGradGradGradGrad

 Leave Link  103 at Wed Apr  1 00:23:02 2015, MaxMem= 3758096384 cpu:      18.6
 (Enter /share/apps/g09/l202.exe)
                          Input orientation:                          
 ---------------------------------------------------------------------
 Center     Atomic      Atomic             Coordinates (Angstroms)
 Number     Number       Type             X           Y           Z
 ---------------------------------------------------------------------
      1          6           0       -1.761995   -1.078448    0.178738
      2          1           0       -0.808640   -1.597432    0.032674
      3          1           0       -2.542542   -1.645463   -0.340258
      4          1           0       -1.992028   -1.096137    1.250870
      5          6           0       -1.683426    0.362568   -0.342310
      6          1           0       -1.488255    0.360798   -1.424633
      7          1           0       -2.678479    0.835976   -0.236313
      8          6           0       -0.660115    1.196266    0.349394
      9          1           0       -0.321434    2.132837   -0.082745
     10          1           0       -0.390942    0.998426    1.383187
     11          8           0        1.738752   -0.098141   -0.521988
     12          8           0        2.617085   -0.259919    0.310601
 ---------------------------------------------------------------------
                    Distance matrix (angstroms):
                    1          2          3          4          5
     1  C    0.000000
     2  H    1.095247   0.000000
     3  H    1.095498   1.774205   0.000000
     4  H    1.096675   1.770792   1.771020   0.000000
     5  C    1.534338   2.178868   2.184096   2.182035   0.000000
     6  H    2.171903   2.533828   2.512464   3.087840   1.099780
     7  H    2.162690   3.080605   2.487332   2.532980   1.107015
     8  C    2.533296   2.815515   3.477726   2.800314   1.490192
     9  H    3.529298   3.763721   4.390352   3.872426   2.248610
    10  H    2.764758   2.955813   3.819659   2.639730   2.247703
    11  O    3.702330   3.007446   4.555954   4.249440   3.457721
    12  O    4.456874   3.688059   5.381925   4.777791   4.394107
                    6          7          8          9         10
     6  H    0.000000
     7  H    1.747722   0.000000
     8  C    2.128613   2.132289   0.000000
     9  H    2.510429   2.694642   1.085640   0.000000
    10  H    3.081317   2.807489   1.086426   1.854906   0.000000
    11  O    3.382154   4.523949   2.861706   3.068316   3.060678
    12  O    4.500016   5.435357   3.586366   3.809842   3.432507
                   11         12
    11  O    0.000000
    12  O    1.221003   0.000000
 Stoichiometry    C3H7O2(2)
 Framework group  C1[X(C3H7O2)]
 Deg. of freedom    30
 Full point group                 C1      NOp   1
 Largest Abelian subgroup         C1      NOp   1
 Largest concise Abelian subgroup C1      NOp   1
                         Standard orientation:                         
 ---------------------------------------------------------------------
 Center     Atomic      Atomic             Coordinates (Angstroms)
 Number     Number       Type             X           Y           Z
 ---------------------------------------------------------------------
      1          6           0       -1.761791   -1.078597    0.178576
      2          1           0       -0.808441   -1.597591    0.032513
      3          1           0       -2.542344   -1.645604   -0.340419
      4          1           0       -1.991823   -1.096283    1.250708
      5          6           0       -1.683206    0.362418   -0.342471
      6          1           0       -1.488035    0.360647   -1.424794
      7          1           0       -2.678255    0.835836   -0.236475
      8          6           0       -0.659887    1.196106    0.349233
      9          1           0       -0.321196    2.132673   -0.082906
     10          1           0       -0.390717    0.998263    1.383025
     11          8           0        1.738966   -0.098326   -0.522150
     12          8           0        2.617298   -0.260113    0.310440
 ---------------------------------------------------------------------
 Rotational constants (GHZ):      8.1921487      1.8795606      1.6800248
 Leave Link  202 at Wed Apr  1 00:23:02 2015, MaxMem= 3758096384 cpu:       0.1
 (Enter /share/apps/g09/l301.exe)
 Standard basis: 6-31G(d) (6D, 7F)
 Ernie: Thresh=  0.10000D-02 Tol=  0.10000D-05 Strict=F.
 There are    89 symmetry adapted basis functions of A   symmetry.
 Integral buffers will be    131072 words long.
 Raffenetti 2 integral format.
 Two-electron integral symmetry is turned on.
    89 basis functions,   168 primitive gaussians,    89 cartesian basis functions
    21 alpha electrons       20 beta electrons
       nuclear repulsion energy       160.2401363900 Hartrees.
 IExCor=  402 DFT=T Ex+Corr=B3LYP ExCW=0 ScaHFX=  0.200000
 ScaDFX=  0.800000  0.720000  1.000000  0.810000 ScalE2=  1.000000  1.000000
 IRadAn=      0 IRanWt=     -1 IRanGd=            0 ICorTp=0
 NAtoms=   12 NActive=   12 NUniq=   12 SFac= 7.50D-01 NAtFMM=   80 NAOKFM=F Big=F
 Leave Link  301 at Wed Apr  1 00:23:02 2015, MaxMem= 3758096384 cpu:       0.6
 (Enter /share/apps/g09/l302.exe)
 NPDir=0 NMtPBC=     1 NCelOv=     1 NCel=       1 NClECP=     1 NCelD=      1
         NCelK=      1 NCelE2=     1 NClLst=     1 CellRange=     0.0.
 One-electron integrals computed using PRISM.
 NBasis=    89 RedAO= T  NBF=    89
 NBsUse=    89 1.00D-06 NBFU=    89
 Precomputing XC quadrature grid using
 IXCGrd= 2 IRadAn=           0 IRanWt=          -1 IRanGd=           0 AccXCQ= 1.00D-10.
 NRdTot=     744 NPtTot=       94340 NUsed=       99717 NTot=       99749
 NSgBfM=    89    89    89    89    89 NAtAll=    12    12.
 Leave Link  302 at Wed Apr  1 00:23:02 2015, MaxMem= 3758096384 cpu:       2.1
 (Enter /share/apps/g09/l303.exe)
 DipDrv:  MaxL=1.
 Leave Link  303 at Wed Apr  1 00:23:03 2015, MaxMem= 3758096384 cpu:       0.9
 (Enter /share/apps/g09/l401.exe)
 Initial guess read from the read-write file.
 B after Tr=     0.000000    0.000000    0.000000
         Rot=    1.000000    0.000000    0.000000    0.000000 Ang=   0.00 deg.
 Guess basis will be translated and rotated to current coordinates.
 Initial guess orbital symmetries:
 Alpha Orbitals:
       Occupied  (A) (A) (A) (A) (A) (A) (A) (A) (A) (A) (A) (A)
                 (A) (A) (A) (A) (A) (A) (A) (A) (A)
       Virtual   (A) (A) (A) (A) (A) (A) (A) (A) (A) (A) (A) (A)
                 (A) (A) (A) (A) (A) (A) (A) (A) (A) (A) (A) (A)
                 (A) (A) (A) (A) (A) (A) (A) (A) (A) (A) (A) (A)
                 (A) (A) (A) (A) (A) (A) (A) (A) (A) (A) (A) (A)
                 (A) (A) (A) (A) (A) (A) (A) (A) (A) (A) (A) (A)
                 (A) (A) (A) (A) (A) (A) (A) (A)
 Beta  Orbitals:
       Occupied  (A) (A) (A) (A) (A) (A) (A) (A) (A) (A) (A) (A)
                 (A) (A) (A) (A) (A) (A) (A) (A)
       Virtual   (A) (A) (A) (A) (A) (A) (A) (A) (A) (A) (A) (A)
                 (A) (A) (A) (A) (A) (A) (A) (A) (A) (A) (A) (A)
                 (A) (A) (A) (A) (A) (A) (A) (A) (A) (A) (A) (A)
                 (A) (A) (A) (A) (A) (A) (A) (A) (A) (A) (A) (A)
                 (A) (A) (A) (A) (A) (A) (A) (A) (A) (A) (A) (A)
                 (A) (A) (A) (A) (A) (A) (A) (A) (A)
 The electronic state of the initial guess is 2-A.
 Initial guess <Sx>= 0.0000 <Sy>= 0.0000 <Sz>= 0.5000 <S**2>= 1.6581 S= 0.8813
 Leave Link  401 at Wed Apr  1 00:23:03 2015, MaxMem= 3758096384 cpu:       4.8
 (Enter /share/apps/g09/l502.exe)
 UHF open shell SCF:
 Requested convergence on RMS density matrix=1.00D-08 within 128 cycles.
 Requested convergence on MAX density matrix=1.00D-06.
 Requested convergence on             energy=1.00D-06.
 No special actions if energy rises.
 Using DIIS extrapolation, IDIIS=  1040.
 Integral symmetry usage will be decided dynamically.
        99596 words used for storage of precomputed grid.
 Keep R1 and R2 ints in memory in canonical form, NReq=17096789.
 IEnd=      143254 IEndB=      143254 NGot=  3758096384 MDV=  3741933723
 LenX=  3741933723 LenY=  3741925361
 Symmetry not used in FoFDir.
 MinBra= 0 MaxBra= 2 Meth= 1.
 IRaf=       0 NMat=   1 IRICut=       1 DoRegI=T DoRafI=F ISym2E= 0 JSym2E=0.

 Cycle   1  Pass 1  IDiag  1:
 E= -268.794289255411    
 DIIS: error= 2.20D-04 at cycle   1 NSaved=   1.
 NSaved= 1 IEnMin= 1 EnMin= -268.794289255411     IErMin= 1 ErrMin= 2.20D-04
 ErrMax= 2.20D-04 EMaxC= 1.00D-01 BMatC= 5.81D-06 BMatP= 5.81D-06
 IDIUse=3 WtCom= 9.98D-01 WtEn= 2.20D-03
 Coeff-Com:  0.100D+01
 Coeff-En:   0.100D+01
 Coeff:      0.100D+01
 Gap=     0.246 Goal=   None    Shift=    0.000
 Gap=     0.103 Goal=   None    Shift=    0.000
 RMSDP=1.82D-05 MaxDP=2.50D-04              OVMax= 8.32D-04

 Cycle   2  Pass 1  IDiag  1:
 E= -268.794291344819     Delta-E=       -0.000002089407 Rises=F Damp=F
 DIIS: error= 2.72D-05 at cycle   2 NSaved=   2.
 NSaved= 2 IEnMin= 2 EnMin= -268.794291344819     IErMin= 2 ErrMin= 2.72D-05
 ErrMax= 2.72D-05 EMaxC= 1.00D-01 BMatC= 1.55D-07 BMatP= 5.81D-06
 IDIUse=1 WtCom= 1.00D+00 WtEn= 0.00D+00
 Coeff-Com:  0.479D-02 0.995D+00
 Coeff:      0.479D-02 0.995D+00
 Gap=     0.246 Goal=   None    Shift=    0.000
 Gap=     0.103 Goal=   None    Shift=    0.000
 RMSDP=5.99D-06 MaxDP=1.38D-04 DE=-2.09D-06 OVMax= 4.03D-04

 Cycle   3  Pass 1  IDiag  1:
 E= -268.794291384049     Delta-E=       -0.000000039231 Rises=F Damp=F
 DIIS: error= 1.74D-05 at cycle   3 NSaved=   3.
 NSaved= 3 IEnMin= 3 EnMin= -268.794291384049     IErMin= 3 ErrMin= 1.74D-05
 ErrMax= 1.74D-05 EMaxC= 1.00D-01 BMatC= 1.26D-07 BMatP= 1.55D-07
 IDIUse=1 WtCom= 1.00D+00 WtEn= 0.00D+00
 Coeff-Com: -0.320D-01 0.474D+00 0.558D+00
 Coeff:     -0.320D-01 0.474D+00 0.558D+00
 Gap=     0.246 Goal=   None    Shift=    0.000
 Gap=     0.103 Goal=   None    Shift=    0.000
 RMSDP=2.02D-06 MaxDP=4.97D-05 DE=-3.92D-08 OVMax= 9.86D-05

 Cycle   4  Pass 1  IDiag  1:
 E= -268.794291405586     Delta-E=       -0.000000021536 Rises=F Damp=F
 DIIS: error= 1.69D-05 at cycle   4 NSaved=   4.
 NSaved= 4 IEnMin= 4 EnMin= -268.794291405586     IErMin= 4 ErrMin= 1.69D-05
 ErrMax= 1.69D-05 EMaxC= 1.00D-01 BMatC= 3.33D-08 BMatP= 1.26D-07
 IDIUse=1 WtCom= 1.00D+00 WtEn= 0.00D+00
 Coeff-Com: -0.203D-01 0.213D+00 0.360D+00 0.448D+00
 Coeff:     -0.203D-01 0.213D+00 0.360D+00 0.448D+00
 Gap=     0.246 Goal=   None    Shift=    0.000
 Gap=     0.103 Goal=   None    Shift=    0.000
 RMSDP=8.29D-07 MaxDP=2.80D-05 DE=-2.15D-08 OVMax= 4.95D-05

 Cycle   5  Pass 1  IDiag  1:
 E= -268.794291410654     Delta-E=       -0.000000005069 Rises=F Damp=F
 DIIS: error= 7.85D-06 at cycle   5 NSaved=   5.
 NSaved= 5 IEnMin= 5 EnMin= -268.794291410654     IErMin= 5 ErrMin= 7.85D-06
 ErrMax= 7.85D-06 EMaxC= 1.00D-01 BMatC= 8.46D-09 BMatP= 3.33D-08
 IDIUse=1 WtCom= 1.00D+00 WtEn= 0.00D+00
 Coeff-Com: -0.460D-03-0.276D-01 0.390D-01 0.345D+00 0.645D+00
[...]
     Eigenvalues --- 1000.000001000.000001000.000001000.000001000.00000
     Eigenvalues --- 1000.000001000.000001000.000001000.000001000.00000
     Eigenvalues --- 1000.000001000.000001000.000001000.000001000.00000
     Eigenvalues --- 1000.000001000.000001000.000001000.000001000.00000
     Eigenvalues --- 1000.000001000.000001000.000001000.000001000.00000
     Eigenvalues --- 1000.000001000.000001000.000001000.000001000.00000
     Eigenvalues --- 1000.000001000.000001000.000001000.000001000.00000
     Eigenvalues --- 1000.000001000.000001000.000001000.000001000.00000
     Eigenvalues --- 1000.000001000.000001000.000001000.000001000.00000
     Eigenvalues --- 1000.000001000.000001000.000001000.000001000.00000
     Eigenvalues --- 1000.00000
 Angle between quadratic step and forces=  80.02 degrees.
 Linear search not attempted -- first point.
 Iteration  1 RMS(Cart)=  0.01171913 RMS(Int)=  0.00026482
 Iteration  2 RMS(Cart)=  0.00011970 RMS(Int)=  0.00010930
 Iteration  3 RMS(Cart)=  0.00000008 RMS(Int)=  0.00010930
 Iteration  1 RMS(Cart)=  0.00000046 RMS(Int)=  0.00000140
 Variable       Old X    -DE/DX   Delta X   Delta X   Delta X     New X
                                 (Linear)    (Quad)   (Total)
    R1        2.06980   0.00003   0.00000  -0.00008  -0.00006   2.06974
    R2        2.07023   0.00000   0.00000   0.00000   0.00000   2.07022
    R3        2.07243   0.00000   0.00000   0.00003   0.00003   2.07246
    R4        2.89960   0.00000   0.00000   0.00032   0.00035   2.89995
    R5        6.99300  -0.00008   0.00000  -0.04059  -0.04060   6.95240
    R6        5.67862  -0.00006   0.00000  -0.05460  -0.05445   5.62417
    R7        6.96387   0.00011   0.00000  -0.08035  -0.08047   6.88340
    R8        2.07833  -0.00004   0.00000  -0.00028  -0.00022   2.07811
    R9        2.09187   0.00000   0.00000   0.00010   0.00010   2.09197
   R10        2.81608   0.00011   0.00000  -0.00003   0.00001   2.81609
   R11        6.53435  -0.00024   0.00000  -0.00502  -0.00508   6.52927
   R12        6.39338  -0.00009   0.00000   0.01819   0.01805   6.41143
   R13        2.05147   0.00009   0.00000  -0.00003  -0.00001   2.05145
   R14        2.05292   0.00007   0.00000   0.00008   0.00009   2.05301
   R15        5.40784  -0.00061   0.00000   0.00000  -0.00001   5.40783
   R16        6.77816  -0.00027   0.00000   0.00151   0.00154   6.77970
   R17        5.79106  -0.00038   0.00000   0.00345   0.00338   5.79444
   R18        5.77450  -0.00028   0.00000   0.00131   0.00128   5.77578
   R19        6.47791  -0.00003   0.00000  -0.00226  -0.00200   6.47590
   R20        2.30656   0.00022   0.00000   0.00020   0.00017   2.30673
    A1        1.88763   0.00004   0.00000   0.00045   0.00052   1.88815
    A2        1.88096  -0.00003   0.00000  -0.00008  -0.00017   1.88079
    A3        1.93411  -0.00005   0.00000  -0.00032  -0.00030   1.93381
    A4        1.88106  -0.00001   0.00000   0.00006   0.00004   1.88110
    A5        1.94093   0.00000   0.00000   0.00000  -0.00008   1.94085
    A6        2.37636   0.00005   0.00000   0.00577   0.00563   2.38200
    A7        1.93688   0.00005   0.00000  -0.00008   0.00001   1.93689
    A8        1.96822  -0.00003   0.00000  -0.01018  -0.01011   1.95811
    A9        2.24884   0.00001   0.00000   0.00870   0.00857   2.25740
   A10        1.91936   0.00004   0.00000   0.00021   0.00025   1.91961
   A11        1.89938  -0.00001   0.00000  -0.00051  -0.00045   1.89893
   A12        1.98523  -0.00005   0.00000  -0.00029  -0.00027   1.98496
   A13        1.82804  -0.00005   0.00000   0.00053   0.00026   1.82829
   A14        1.91337   0.00000   0.00000   0.00022   0.00011   1.91348
   A15        1.91181   0.00007   0.00000  -0.00010   0.00014   1.91195
   A16        2.83060  -0.00006   0.00000   0.00868   0.00849   2.83910
   A17        2.10917  -0.00004   0.00000   0.00069   0.00071   2.10989
   A18        2.10623  -0.00007   0.00000  -0.00052  -0.00048   2.10576
   A19        1.97677   0.00012   0.00000  -0.00853  -0.00868   1.96810
   A20        2.04795   0.00004   0.00000  -0.00022  -0.00027   2.04768
   A21        1.62855   0.00009   0.00000   0.01010   0.01008   1.63863
   A22        0.61695   0.00001   0.00000   0.00236   0.00233   0.61928
   A23        0.75209   0.00002   0.00000   0.00474   0.00475   0.75684
   A24        1.08285   0.00006   0.00000   0.00405   0.00404   1.08689
   A25        0.82218   0.00001   0.00000   0.00523   0.00527   0.82744
   A26        2.11275   0.00004   0.00000  -0.01706  -0.01715   2.09560
   A27        0.67394   0.00002   0.00000   0.00177   0.00174   0.67568
   A28        0.80756   0.00002   0.00000   0.00075   0.00072   0.80828
   A29        0.99995   0.00003   0.00000   0.00588   0.00584   1.00580
   A30        1.33676   0.00007   0.00000   0.00447   0.00443   1.34119
   A31        1.01788   0.00002   0.00000   0.00864   0.00863   1.02651
   A32        0.69410   0.00006   0.00000   0.00046   0.00047   0.69458
   A33        0.69423   0.00004   0.00000   0.00030   0.00032   0.69455
   A34        2.33839   0.00010   0.00000  -0.00905  -0.00919   2.32920
   A35        0.67608   0.00003   0.00000  -0.00182  -0.00182   0.67426
   A36        0.79383   0.00005   0.00000  -0.00297  -0.00296   0.79087
   A37        0.99305   0.00005   0.00000  -0.00117  -0.00117   0.99188
   A38        2.66040   0.00010   0.00000  -0.00947  -0.00972   2.65068
   A39        0.61595   0.00007   0.00000  -0.00030  -0.00030   0.61565
   A40        2.07476   0.00009   0.00000   0.01075   0.01082   2.08559
   A41        0.79464  -0.00002   0.00000   0.00524   0.00519   0.79983
   A42        0.85348  -0.00002   0.00000   0.00947   0.00945   0.86293
    D1        2.77126   0.00004   0.00000   0.02522   0.02529   2.79655
    D2       -1.48276   0.00002   0.00000   0.02548   0.02552  -1.45724
    D3        0.63959   0.00004   0.00000   0.02513   0.02523   0.66482
    D4        1.08796   0.00006   0.00000  -0.00112  -0.00102   1.08694
    D5        3.08109   0.00002   0.00000  -0.00066  -0.00083   3.08026
    D6       -1.06559   0.00007   0.00000  -0.00136  -0.00116  -1.06676
    D7       -1.01227   0.00004   0.00000  -0.00147  -0.00142  -1.01370
    D8        0.98086   0.00000   0.00000  -0.00101  -0.00123   0.97963
    D9        3.11736   0.00005   0.00000  -0.00171  -0.00157   3.11579
   D10       -3.10607   0.00002   0.00000  -0.00149  -0.00143  -3.10750
   D11       -1.11294  -0.00002   0.00000  -0.00102  -0.00124  -1.11417
   D12        1.02357   0.00003   0.00000  -0.00172  -0.00157   1.02199
   D13        1.19437  -0.00006   0.00000   0.01235   0.01234   1.20671
   D14        2.27980  -0.00003   0.00000   0.00312   0.00316   2.28296
   D15        2.09169  -0.00004   0.00000   0.00252   0.00254   2.09423
   D16        2.78643   0.00001   0.00000   0.00030   0.00035   2.78679
   D17       -2.29646   0.00009   0.00000   0.02359   0.02353  -2.27292
   D18       -2.36240  -0.00004   0.00000  -0.00380  -0.00380  -2.36620
   D19       -1.27697  -0.00001   0.00000  -0.01304  -0.01298  -1.28995
   D20       -1.46507  -0.00002   0.00000  -0.01364  -0.01360  -1.47868
   D21       -0.77033   0.00003   0.00000  -0.01586  -0.01579  -0.78612
   D22        0.42996   0.00010   0.00000   0.00743   0.00739   0.43735
   D23       -0.14630  -0.00004   0.00000  -0.02353  -0.02358  -0.16988
   D24        0.26679   0.00000   0.00000  -0.02757  -0.02761   0.23918
   D25        2.85348   0.00018   0.00000  -0.01693  -0.01696   2.83652
   D26       -0.50639  -0.00018   0.00000  -0.01721  -0.01718  -0.52357
   D27        0.94648  -0.00001   0.00000  -0.02426  -0.02414   0.92234
   D28        0.69667   0.00016   0.00000  -0.01716  -0.01718   0.67948
   D29       -2.66321  -0.00020   0.00000  -0.01745  -0.01740  -2.68060
   D30       -1.21033  -0.00003   0.00000  -0.02449  -0.02435  -1.23469
   D31       -1.30006   0.00018   0.00000  -0.01786  -0.01763  -1.31769
   D32        1.62325  -0.00018   0.00000  -0.01815  -0.01784   1.60540
   D33        3.07612  -0.00001   0.00000  -0.02519  -0.02480   3.05132
   D34        2.75468  -0.00005   0.00000  -0.03487  -0.03500   2.71969
   D35        0.00678  -0.00005   0.00000  -0.04960  -0.04972  -0.04294
   D36        0.99404   0.00000   0.00000  -0.05059  -0.05074   0.94331
   D37        1.46691   0.00006   0.00000  -0.01660  -0.01677   1.45014
   D38       -0.41772   0.00001   0.00000   0.01642   0.01639  -0.40133
   D39       -2.61204  -0.00005   0.00000   0.01310   0.01317  -2.59887
         Item               Value     Threshold  Converged?
 Maximum Force            0.000085     0.000450     YES
 RMS     Force            0.000012     0.000300     YES
 Maximum Displacement     0.056509     0.001800     NO 
 RMS     Displacement     0.011775     0.001200     NO 
 Predicted change in Energy=-1.664784D-06
 GradGradGradGradGradGradGradGradGradGradGradGradGradGradGradGradGradGrad

 Leave Link  103 at Wed Apr  1 00:23:56 2015, MaxMem= 3758096384 cpu:       0.2
 (Enter /share/apps/g09/l9999.exe)
 1\1\GINC-COMPUTE-0-2\Freq\UB3LYP\6-31G(d)\C3H7O2(2)\HETANJIN\01-Apr-20
 15\0\\#P Geom=AllCheck Guess=TCheck SCRF=Check GenChk UB3LYP/6-31G(d) 
 Freq\\C3H7O2_62_b3631gd using cbs-qb3 to calculate energy\\0,2\C,-1.76
 13987025,-1.0780718357,0.1785632768\H,-0.8076281925,-1.5962451816,0.03
 19947837\H,-2.5415332749,-1.6457961106,-0.3403174591\H,-1.9910010964,-
 1.0964367346,1.250786677\C,-1.684549673,0.3632531928,-0.3420846032\H,-
 1.489835754,0.3617655759,-1.4245165877\H,-2.6802717761,0.8350642477,-0
 .2357004685\C,-0.6613887942,1.1973156481,0.3494294338\H,-0.3191686173,
 2.1317402891,-0.0844354819\H,-0.3885675063,0.9970876212,1.3817341449\O
 ,1.7377906701,-0.0976318201,-0.520286907\O,2.6155347172,-0.2607138922,
 0.3120491912\\Version=EM64L-G09RevA.01\State=2-A\HF=-268.7942927\S2=1.
 658893\S2-1=0.\S2A=0.778047\RMSD=2.832e-09\RMSF=4.629e-04\ZeroPoint=0.
 0935091\Thermal=0.101387\Dipole=-0.3903028,0.1027734,-0.0105874\Dipole
 Deriv=0.0973877,-0.0146613,0.0066915,0.0351782,0.0455374,0.0173871,-0.
 0671505,-0.0011717,0.1221285,-0.0764268,0.1073099,0.0222083,0.0526335,
 -0.0068867,0.0092665,0.0319362,0.0032281,0.0466166,-0.0625043,-0.10414
 31,-0.0730365,-0.1098689,-0.043181,-0.0288733,-0.0763406,-0.0490747,0.
 009772,0.0543919,-0.0008368,0.0340397,0.0083691,0.0224755,-0.0103172,0
 .0557955,0.0331145,-0.1577248,0.0092573,-0.0354627,-0.0452612,0.055157
 3,0.106035,0.0276607,-0.0456379,0.0147561,0.0948263,0.0426551,-0.01744
 2,0.0341127,-0.0884216,0.0081076,0.0033035,-0.0027953,0.024312,-0.1626
 591,-0.2043061,0.0862261,-0.0081696,-0.0184993,-0.0258897,-0.0050776,-
 0.0240312,-0.0007135,0.0579337,-0.1658254,0.2002811,0.1117018,0.331400
 9,-0.0634655,-0.108623,0.2989947,-0.1199534,0.0926199,0.0592987,-0.083
 8812,-0.0217692,-0.0886554,-0.0793018,0.0400225,-0.0250228,0.0503146,0
 .0201375,0.0574966,-0.0442658,-0.0416996,-0.0369692,0.0387403,0.045206
 9,-0.0497791,0.0130995,-0.0805339,0.9969532,-0.3612648,-0.1102856,-0.2
 843066,0.0797934,0.0269289,0.6379274,-0.2259615,-0.0980065,-0.8083779,
 0.2681407,0.0914675,0.143982,-0.0819646,-0.0168851,-0.7338964,0.258050
 1,0.0548898\Polar=74.2718321,-8.8064804,41.2061544,2.6453726,-0.059211
 5,38.155398\PG=C01 [X(C3H7O2)]\NImag=1\\0.58198262,-0.00263408,0.48837
 923,0.00504645,0.03537469,0.56400603,-0.25363186,0.10766586,0.03248026
 ,0.27272075,0.10623971,-0.10533545,-0.01805218,-0.11790809,0.11534253,
 0.03270074,-0.01839948,-0.05620052,-0.03605058,0.01715208,0.05549785,-
 0.18531445,-0.09613160,-0.09089152,-0.01933223,-0.01527529,-0.01461876
 ,0.19718563,-0.09498973,-0.11716237,-0.06442221,0.01066194,0.00901708,
 0.00893701,0.10592376,0.12760354,-0.09093861,-0.06547819,-0.11093996,0
 .00428256,0.00383751,0.00229924,0.10039221,0.06955507,0.11619122,-0.06
 234129,-0.00011367,0.05396437,-0.00507452,-0.00074672,0.02963032,0.006
 13081,0.00106626,-0.02438212,0.06109951,-0.00003939,-0.04872171,-0.000
 87480,0.00178604,-0.00032961,-0.01550626,0.00509628,-0.00016602,-0.016
 40152,0.00033781,0.05302351,0.05383241,0.00019592,-0.29877719,0.000617
 46,-0.00050309,-0.00324460,0.00360075,-0.00010957,-0.01452360,-0.05951
 295,-0.00235730,0.32485175,-0.07545271,-0.00079923,0.00097595,0.003217
 66,0.02732162,-0.01097698,-0.00003979,-0.02249386,0.00976638,-0.000968
 19,-0.00763835,0.00228294,0.48749544,-0.00312003,-0.17750536,0.0357756
 6,-0.00150446,-0.01610375,0.00624802,0.00114936,-0.01549027,0.00736354
 ,0.00009258,-0.00091011,0.00056880,-0.00440492,0.47106829,0.00054801,0
 .03651419,-0.09765429,-0.00083443,-0.00494524,0.00136536,0.00061197,-0
 .01682404,0.00613111,0.00043469,0.03361580,-0.01093428,-0.00848949,0.0
 0100854,0.55354964,-0.00095596,-0.00022531,0.00093848,0.00019528,-0.00
 020911,-0.00068636,-0.00013566,-0.00009739,0.00030718,0.00090089,-0.00
 049997,-0.00038349,-0.05276869,-0.00032415,0.04690382,0.06125083,-0.00
 690143,-0.00014847,0.03268296,0.00041562,0.00134251,-0.00055953,-0.000
 19953,0.00122407,-0.00059653,-0.00019947,-0.00643564,0.00245707,-0.000
 28108,-0.05108819,-0.00391858,0.00228926,0.05429360,0.00209440,0.00060
 726,-0.00965093,-0.00054887,-0.00006608,0.00037387,0.00032047,0.000218
 17,0.00058659,-0.00008511,0.00219650,0.00089842,0.04821609,-0.00078559
 ,-0.28931874,-0.04950577,0.00195911,0.31732677,0.00202666,-0.00077944,
 0.00018853,0.00128082,-0.00073971,0.00002661,0.00059490,0.00051104,0.0
 0001018,0.00020527,0.00012199,-0.00051384,-0.23044923,0.09646556,0.028
 17593,-0.00713395,0.00394986,0.00269977,0.25875128,0.02952892,-0.01694
 386,-0.00313691,-0.00087240,-0.00621467,0.00298465,-0.00016541,0.00119
 346,-0.00088392,-0.00032518,0.00153144,0.00012431,0.08261964,-0.085386
 08,-0.01120657,0.00132029,-0.00009228,-0.00053519,-0.09758955,0.098930
 54,-0.01060361,0.00680967,0.00114578,-0.00011487,0.00240054,0.00002954
 ,0.00031578,-0.00070868,0.00021573,-0.00060452,-0.00053040,0.00035413,
 0.02056831,-0.00895843,-0.04719216,0.03066080,-0.01405251,-0.00511296,
 -0.02449746,0.01173473,0.05094736,-0.00479889,-0.00757699,0.00036349,0
 .00086477,0.00129321,-0.00002814,0.00070420,0.00022705,-0.00016422,0.0
 0045093,0.00110917,-0.00073228,-0.13145980,-0.07481096,-0.05834453,0.0
 0035708,0.00184222,-0.00225441,-0.02493356,-0.01618721,-0.01657318,0.2
 6358071,-0.02579357,-0.02379833,-0.01382548,-0.00047465,0.00222184,-0.
 00080546,-0.00044136,-0.00531919,0.00195247,0.00005538,0.00171707,-0.0
 0092647,-0.06996505,-0.12220420,-0.02726097,-0.00003325,0.00197887,-0.
 00081021,-0.00045922,0.00798546,0.00429301,0.19699338,0.45487628,0.009
 19993,0.00394389,0.00849930,-0.00009492,0.00064949,0.00016235,0.000311
 14,0.00441072,-0.00081178,0.00109680,0.00091715,0.00062658,-0.05820423
 ,-0.03175665,-0.11644922,-0.02679288,-0.01725167,-0.01583009,-0.005220
 62,0.00144946,0.00026953,0.13620160,-0.13578147,0.53886780,-0.00274923
 ,-0.00010552,-0.00344581,0.00015673,-0.00014293,-0.00005347,0.00030466
 ,-0.00130072,0.00050835,-0.00011057,0.00018923,0.00008327,-0.00058245,
 -0.01783262,0.01183254,0.00067297,0.00069301,-0.00072370,0.00021819,0.
 00119525,0.00001342,-0.05793458,-0.09239583,0.02206305,0.05512357,-0.0
 0309792,-0.00055675,-0.00199139,0.00009700,0.00020344,-0.00001605,-0.0
 0007746,-0.00094073,0.00039297,0.00009063,0.00016373,0.00009161,-0.000
 22602,-0.00774396,0.00691166,0.00045177,0.00042786,0.00008581,-0.00069
 544,-0.00047826,0.00009992,-0.09742711,-0.26194666,0.11257695,0.102877
 20,0.27128562,-0.00237788,-0.00106974,-0.00111952,0.00007866,0.0000492
 5,-0.00012755,-0.00021566,-0.00093784,0.00052496,-0.00025436,-0.000263
 67,0.00035464,-0.00374197,-0.01300826,0.00797619,0.00096668,0.00020857
 ,0.00114661,-0.00059325,-0.00012155,0.00019671,0.02402302,0.10972822,-
 0.09984136,-0.02675683,-0.11759163,0.09697677,0.00102259,0.00100223,0.
 00007276,-0.00001336,-0.00007096,0.00011157,-0.00007264,0.00028128,0.0
 0021492,-0.00020579,-0.00045639,0.00072405,0.00131277,0.00449360,-0.02
 097458,-0.00262012,-0.00190192,-0.00046670,-0.00089690,0.00016343,0.00
 071529,-0.04737640,-0.00587590,-0.07692476,0.00528207,-0.00207793,0.00
 858597,0.04373426,0.00088843,0.00181714,-0.00138035,0.00019170,-0.0002
 6057,-0.00005726,0.00020213,0.00009550,0.00023844,-0.00023673,0.000101
 10,0.00042723,-0.00378429,0.00511928,-0.01396727,-0.00259958,-0.001341
 21,-0.00279442,-0.00055608,-0.00031364,-0.00098658,-0.00490679,-0.0553
 3234,0.06025667,0.00625057,-0.00039175,0.02340374,0.00435588,0.0506356
 5,0.00057627,0.00129359,0.00075159,0.00007235,-0.00046406,-0.00005794,
 0.00015678,-0.00004067,0.00032519,-0.00028408,-0.00077484,0.00036810,0
 .00030064,0.00314035,-0.00749487,-0.00237243,-0.00086655,-0.00050128,-
 0.00006056,-0.00014633,-0.00082987,-0.08203698,0.06300461,-0.31379427,
 -0.00342056,-0.00060354,-0.00607551,0.08720352,-0.06459609,0.32724064,
 0.00066866,-0.00143468,0.00128638,-0.00050901,0.00095337,-0.00000970,0
 .00000841,0.00085375,-0.00006680,-0.00016239,-0.00003567,-0.00014170,0
 .00311874,-0.00226959,0.00003578,0.00029730,0.00134550,0.00059051,0.00
 141446,0.00207886,0.00079645,0.00256866,-0.00546357,-0.00355087,0.0000
 9857,-0.00046800,0.00029143,-0.00001009,0.00025879,-0.00100189,0.38585
 834,-0.00012692,0.00018820,-0.00033990,-0.00000905,-0.00003297,0.00004
 999,-0.00009902,-0.00016667,0.00003207,-0.00001668,0.00003570,0.000061
 88,-0.00126324,0.00077288,0.00014672,-0.00008298,-0.00033047,-0.000090
 80,-0.00047504,-0.00058059,-0.00023998,-0.00100800,0.00033079,0.000208
 28,0.00043999,0.00010860,-0.00039189,0.00021865,-0.00023129,0.00016516
 ,-0.06931558,0.01405308,0.00031169,-0.00076325,0.00086250,-0.00000299,
 0.00063444,-0.00014072,0.00005782,0.00053268,-0.00006515,-0.00007506,-
 0.00008477,-0.00010783,0.00160014,-0.00117491,0.00001204,-0.00002872,0
 .00103749,0.00062917,0.00061233,0.00121924,0.00062421,0.00123094,-0.00
 368600,-0.00643377,0.00010581,-0.00030825,0.00006724,0.00158279,-0.000
 91052,-0.00087055,0.37217557,-0.06512515,0.36891239,-0.00045614,0.0011
 3244,-0.00097934,0.00012496,-0.00071510,-0.00004524,-0.00003385,-0.000
 64338,0.00006997,0.00007533,0.00002924,0.00014338,-0.00342375,0.002065
 64,0.00010029,-0.00005996,-0.00105206,-0.00033668,-0.00107793,-0.00176
 665,-0.00067640,-0.00202313,0.00385365,0.00191576,-0.00047993,0.000553
 28,-0.00000580,-0.00015638,-0.00006403,0.00086693,-0.39335167,0.071737
 86,-0.37757033,0.40086242,0.00004602,-0.00021229,0.00018992,-0.0000495
 3,0.00014963,-0.00002770,0.00001814,0.00011158,-0.00001192,-0.00000421
 ,-0.00000947,-0.00003039,0.00091477,-0.00052853,-0.00007424,0.00001042
 ,0.00016933,0.00001544,0.00024600,0.00036850,0.00013872,0.00045204,-0.
 00050960,0.00037718,0.00013238,-0.00013115,-0.00000520,-0.00013198,0.0
 0010213,-0.00011163,0.07349682,-0.01414727,0.06862899,-0.07513089,0.01
 463714,-0.00038979,0.00097142,-0.00092280,0.00011536,-0.00069265,0.000
 04311,-0.00004098,-0.00061062,0.00006645,0.00007203,0.00006411,0.00013
 387,-0.00229778,0.00157893,0.00000924,-0.00000731,-0.00109982,-0.00054
 743,-0.00082761,-0.00148191,-0.00064801,-0.00168532,0.00411775,0.00473
 493,-0.00020607,0.00035192,-0.00007917,-0.00084482,0.00036641,0.000938
 76,-0.37040517,0.06552364,-0.36348951,0.37651746,-0.06908917,0.3597605
 6\\0.00000866,0.00005084,0.00001579,-0.00002405,-0.00003448,0.00000134
 ,0.00000032,-0.00000329,-0.00000310,-0.00000792,-0.00000130,-0.0000013
 5,-0.00001749,-0.00000215,0.00002033,0.00000122,-0.00001259,-0.0000000
 5,0.00000159,0.00000614,-0.00001091,-0.00157843,0.00087275,0.00059709,
 -0.00002860,0.00000791,-0.00000288,0.00000278,-0.00001572,-0.00000592,
 0.00173655,-0.00089070,-0.00051921,-0.00009463,0.00002258,-0.00009113\
 \\@


 A MAN SHOULD NEVER BE ASHAMED TO OWN HE HAS BEEN IN THE WRONG
 WHICH IS BUT SAYING IN OTHER WORDS,
 THAT HE IS WISER TODAY THAN HE WAS YESTERDAY.

                          -- JONATHAN SWIFT
 Job cpu time:  0 days  0 hours  5 minutes 35.8 seconds.
 File lengths (MBytes):  RWF=     29 Int=      0 D2E=      0 Chk=      3 Scr=      1
 Normal termination of Gaussian 09 at Wed Apr  1 00:23:56 2015.
