 Entering Gaussian System, Link 0=/share/apps/g09/g09
 Input=C3H7O2_62_b3631gd_296.gjf
 Output=C3H7O2_62_b3631gd_296.log
 Initial command:
 /share/apps/g09/l1.exe /state/partition1/Gau-14587.inp -scrdir=/state/partition1/
 Entering Link 1 = /share/apps/g09/l1.exe PID=     14588.
  
 Copyright (c) 1988,1990,1992,1993,1995,1998,2003,2009, Gaussian, Inc.
                  All Rights Reserved.
  
 This is part of the Gaussian(R) 09 program.  It is based on
 the Gaussian(R) 03 system (copyright 2003, Gaussian, Inc.),
 the Gaussian(R) 98 system (copyright 1998, Gaussian, Inc.),
 the Gaussian(R) 94 system (copyright 1995, Gaussian, Inc.),
 the Gaussian 92(TM) system (copyright 1992, Gaussian, Inc.),
 the Gaussian 90(TM) system (copyright 1990, Gaussian, Inc.),
 the Gaussian 88(TM) system (copyright 1988, Gaussian, Inc.),
 the Gaussian 86(TM) system (copyright 1986, Carnegie Mellon
 University), and the Gaussian 82(TM) system (copyright 1983,
 Carnegie Mellon University). Gaussian is a federally registered
 trademark of Gaussian, Inc.
  
 This software contains proprietary and confidential information,
 including trade secrets, belonging to Gaussian, Inc.
  
 This software is provided under written license and may be
 used, copied, transmitted, or stored only in accord with that
 written license.
  
 The following legend is applicable only to US Government
 contracts under FAR:
  
                    RESTRICTED RIGHTS LEGEND
  
 Use, reproduction and disclosure by the US Government is
 subject to restrictions as set forth in subparagraphs (a)
 and (c) of the Commercial Computer Software - Restricted
 Rights clause in FAR 52.227-19.
  
 Gaussian, Inc.
 340 Quinnipiac St., Bldg. 40, Wallingford CT 06492
  
  
 ---------------------------------------------------------------
 Warning -- This program may not be used in any manner that
 competes with the business of Gaussian, Inc. or will provide
 assistance to any competitor of Gaussian, Inc.  The licensee
 of this program is prohibited from giving any competitor of
 Gaussian, Inc. access to this program.  By using this program,
 the user acknowledges that Gaussian, Inc. is engaged in the
 business of creating and licensing software in the field of
 computational chemistry and represents and warrants to the
 licensee that it is not a competitor of Gaussian, Inc. and that
 it will not use this program in any manner prohibited above.
 ---------------------------------------------------------------
  

 Cite this work as:
 Gaussian 09, Revision A.01,
 M. J. Frisch, G. W. Trucks, H. B. Schlegel, G. E. Scuseria, 
 M. A. Robb, J. R. Cheeseman, G. Scalmani, V. Barone, B. Mennucci, 
 G. A. Petersson, H. Nakatsuji, M. Caricato, X. Li, H. P. Hratchian, 
 A. F. Izmaylov, J. Bloino, G. Zheng, J. L. Sonnenberg, M. Hada, 
 M. Ehara, K. Toyota, R. Fukuda, J. Hasegawa, M. Ishida, T. Nakajima, 
 Y. Honda, O. Kitao, H. Nakai, T. Vreven, J. A. Montgomery, Jr., 
 J. E. Peralta, F. Ogliaro, M. Bearpark, J. J. Heyd, E. Brothers, 
 K. N. Kudin, V. N. Staroverov, R. Kobayashi, J. Normand, 
 K. Raghavachari, A. Rendell, J. C. Burant, S. S. Iyengar, J. Tomasi, 
 M. Cossi, N. Rega, J. M. Millam, M. Klene, J. E. Knox, J. B. Cross, 
 V. Bakken, C. Adamo, J. Jaramillo, R. Gomperts, R. E. Stratmann, 
 O. Yazyev, A. J. Austin, R. Cammi, C. Pomelli, J. W. Ochterski, 
 R. L. Martin, K. Morokuma, V. G. Zakrzewski, G. A. Voth, 
 P. Salvador, J. J. Dannenberg, S. Dapprich, A. D. Daniels, 
 O. Farkas, J. B. Foresman, J. V. Ortiz, J. Cioslowski, 
 and D. J. Fox, Gaussian, Inc., Wallingford CT, 2009.
 
 ******************************************
 Gaussian 09:  EM64L-G09RevA.01  8-May-2009
                 1-Apr-2015 
 ******************************************
 %mem=28GB
 %nprocshared=12
 Will use up to   12 processors via shared memory.
 %chk=C3H7O2_62_b3631gd_296.chk
 ----------------------------------------
 #p ub3lyp/6-31g(d) opt=modredundant freq
 ----------------------------------------
 1/14=-1,18=120,19=15,26=3,38=1/1,3;
 2/9=110,12=2,17=6,18=5,40=1/2;
 3/5=1,6=6,7=1,11=2,16=1,25=1,30=1,71=1,74=-5,116=2/1,2,3;
 4//1;
 5/5=2,38=5/2;
 6/7=2,8=2,9=2,10=2,28=1/1;
 7//1,2,3,16;
 1/14=-1,18=20,19=15/3(2);
 2/9=110/2;
 99//99;
 2/9=110/2;
 3/5=1,6=6,7=1,11=2,16=1,25=1,30=1,71=1,74=-5,116=2/1,2,3;
 4/5=5,16=3/1;
 5/5=2,38=5/2;
 7//1,2,3,16;
 1/14=-1,18=20,19=15/3(-5);
 2/9=110/2;
 6/7=2,8=2,9=2,10=2,19=2,28=1/1;
 99/9=1/99;
 Leave Link    1 at Wed Apr  1 00:23:34 2015, MaxMem= 3758096384 cpu:       0.3
 (Enter /share/apps/g09/l101.exe)
 ---------------------------------------------------
 C3H7O2_62_b3631gd using cbs-qb3 to calculate energy
 ---------------------------------------------------
 Symbolic Z-matrix:
 Charge =  0 Multiplicity = 2
 C                    -1.7555   -1.09734   0.17962 
 H                    -0.78762  -1.58723   0.02864 
 H                    -2.52154  -1.68833  -0.33425 
 H                    -1.97858  -1.12081   1.25314 
 C                    -1.72369   0.34507  -0.34327 
 H                    -1.5331    0.34808  -1.42628 
 H                    -2.73278   0.78672  -0.23302 
 C                    -0.72349   1.21006   0.34379 
 H                    -0.39776   2.14583  -0.09972 
 H                    -0.45447   1.02934   1.38073 
 O                     1.7921   -0.08941  -0.52506 
 O                     2.66063  -0.24313   0.31879 
 
 NAtoms=     12 NQM=     12 NQMF=      0 NMic=      0 NMicF=      0 NTot=     12.
 The following ModRedundant input section has been read:
 B    8   11 F                                                                 
                    Isotopes and Nuclear Properties:
 (Nuclear quadrupole moments (NQMom) in fm**2, nuclear magnetic moments (NMagM)
  in nuclear magnetons)

  Atom         1           2           3           4           5           6           7           8           9          10
 IAtWgt=          12           1           1           1          12           1           1          12           1           1
 AtmWgt=  12.0000000   1.0078250   1.0078250   1.0078250  12.0000000   1.0078250   1.0078250  12.0000000   1.0078250   1.0078250
 NucSpn=           0           1           1           1           0           1           1           0           1           1
 AtZEff=   0.0000000   0.0000000   0.0000000   0.0000000   0.0000000   0.0000000   0.0000000   0.0000000   0.0000000   0.0000000
 NQMom=    0.0000000   0.0000000   0.0000000   0.0000000   0.0000000   0.0000000   0.0000000   0.0000000   0.0000000   0.0000000
 NMagM=    0.0000000   2.7928460   2.7928460   2.7928460   0.0000000   2.7928460   2.7928460   0.0000000   2.7928460   2.7928460

  Atom        11          12
 IAtWgt=          16          16
 AtmWgt=  15.9949146  15.9949146
 NucSpn=           0           0
 AtZEff=   0.0000000   0.0000000
 NQMom=    0.0000000   0.0000000
 NMagM=    0.0000000   0.0000000
 Leave Link  101 at Wed Apr  1 00:23:34 2015, MaxMem= 3758096384 cpu:       0.5
 (Enter /share/apps/g09/l103.exe)

 GradGradGradGradGradGradGradGradGradGradGradGradGradGradGradGradGradGrad
 Berny optimization.
 Initialization pass.
                           ----------------------------
                           !    Initial Parameters    !
                           ! (Angstroms and Degrees)  !
 --------------------------                            --------------------------
 ! Name  Definition              Value          Derivative Info.                !
 --------------------------------------------------------------------------------
 ! R1    R(1,2)                  1.0953         estimate D2E/DX2                !
 ! R2    R(1,3)                  1.0955         estimate D2E/DX2                !
 ! R3    R(1,4)                  1.0967         estimate D2E/DX2                !
 ! R4    R(1,5)                  1.5346         estimate D2E/DX2                !
 ! R5    R(1,11)                 3.7547         estimate D2E/DX2                !
 ! R6    R(2,11)                 3.034          estimate D2E/DX2                !
 ! R7    R(2,12)                 3.7123         estimate D2E/DX2                !
 ! R8    R(5,6)                  1.0997         estimate D2E/DX2                !
 ! R9    R(5,7)                  1.107          estimate D2E/DX2                !
 ! R10   R(5,8)                  1.4902         estimate D2E/DX2                !
 ! R11   R(5,11)                 3.5472         estimate D2E/DX2                !
 ! R12   R(6,11)                 3.4728         estimate D2E/DX2                !
 ! R13   R(8,9)                  1.0856         estimate D2E/DX2                !
 ! R14   R(8,10)                 1.0864         estimate D2E/DX2                !
 ! R15   R(8,11)                 2.9617         Frozen                          !
 ! R16   R(8,12)                 3.683          estimate D2E/DX2                !
 ! R17   R(9,11)                 3.158          estimate D2E/DX2                !
 ! R18   R(10,11)                3.1513         estimate D2E/DX2                !
 ! R19   R(10,12)                3.5286         estimate D2E/DX2                !
 ! R20   R(11,12)                1.2207         estimate D2E/DX2                !
 ! A1    A(2,1,3)              108.1782         estimate D2E/DX2                !
 ! A2    A(2,1,4)              107.7657         estimate D2E/DX2                !
 ! A3    A(2,1,5)              110.8011         estimate D2E/DX2                !
 ! A4    A(3,1,4)              107.7804         estimate D2E/DX2                !
 ! A5    A(3,1,5)              111.2061         estimate D2E/DX2                !
 ! A6    A(3,1,11)             135.8453         estimate D2E/DX2                !
 ! A7    A(4,1,5)              110.9693         estimate D2E/DX2                !
 ! A8    A(4,1,11)             112.4357         estimate D2E/DX2                !
 ! A9    A(1,2,12)             130.4002         estimate D2E/DX2                !
 ! A10   A(1,5,6)              109.9834         estimate D2E/DX2                !
 ! A11   A(1,5,7)              108.7934         estimate D2E/DX2                !
 ! A12   A(1,5,8)              113.7286         estimate D2E/DX2                !
 ! A13   A(6,5,7)              104.772          estimate D2E/DX2                !
 ! A14   A(6,5,8)              109.6433         estimate D2E/DX2                !
 ! A15   A(7,5,8)              109.5315         estimate D2E/DX2                !
 ! A16   A(7,5,11)             163.2249         estimate D2E/DX2                !
 ! A17   A(5,8,9)              120.8894         estimate D2E/DX2                !
 ! A18   A(5,8,10)             120.6444         estimate D2E/DX2                !
 ! A19   A(5,8,12)             112.6164         estimate D2E/DX2                !
 ! A20   A(9,8,10)             117.3255         estimate D2E/DX2                !
 ! A21   A(9,8,12)              93.5344         estimate D2E/DX2                !
 ! A22   A(1,11,6)              34.6994         estimate D2E/DX2                !
 ! A23   A(1,11,8)              42.2862         estimate D2E/DX2                !
 ! A24   A(1,11,9)              60.6291         estimate D2E/DX2                !
 ! A25   A(1,11,10)             46.2291         estimate D2E/DX2                !
 ! A26   A(1,11,12)            120.5784         estimate D2E/DX2                !
 ! A27   A(2,11,5)              37.6615         estimate D2E/DX2                !
 ! A28   A(2,11,6)              45.2042         estimate D2E/DX2                !
 ! A29   A(2,11,8)              56.0042         estimate D2E/DX2                !
 ! A30   A(2,11,9)              74.647          estimate D2E/DX2                !
 ! A31   A(2,11,10)             57.2299         estimate D2E/DX2                !
 ! A32   A(5,11,9)              38.6567         estimate D2E/DX2                !
 ! A33   A(5,11,10)             38.6417         estimate D2E/DX2                !
 ! A34   A(5,11,12)            133.2523         estimate D2E/DX2                !
 ! A35   A(6,11,8)              37.5889         estimate D2E/DX2                !
 ! A36   A(6,11,9)              44.0957         estimate D2E/DX2                !
 ! A37   A(6,11,10)             55.2233         estimate D2E/DX2                !
 ! A38   A(6,11,12)            151.2262         estimate D2E/DX2                !
 ! A39   A(9,11,10)             34.1989         estimate D2E/DX2                !
 ! A40   A(9,11,12)            119.3026         estimate D2E/DX2                !
 ! A41   A(2,12,8)              44.7573         estimate D2E/DX2                !
 ! A42   A(2,12,10)             48.2457         estimate D2E/DX2                !
 ! D1    D(3,1,2,12)           159.8633         estimate D2E/DX2                !
 ! D2    D(4,1,2,12)           -83.8595         estimate D2E/DX2                !
 ! D3    D(5,1,2,12)            37.7217         estimate D2E/DX2                !
 ! D4    D(2,1,5,6)             62.2497         estimate D2E/DX2                !
 ! D5    D(2,1,5,7)            176.4756         estimate D2E/DX2                !
 ! D6    D(2,1,5,8)            -61.1569         estimate D2E/DX2                !
 ! D7    D(3,1,5,6)            -58.1056         estimate D2E/DX2                !
 ! D8    D(3,1,5,7)             56.1202         estimate D2E/DX2                !
 ! D9    D(3,1,5,8)            178.4878         estimate D2E/DX2                !
 ! D10   D(4,1,5,6)           -178.0712         estimate D2E/DX2                !
 ! D11   D(4,1,5,7)            -63.8454         estimate D2E/DX2                !
 ! D12   D(4,1,5,8)             58.5222         estimate D2E/DX2                !
 ! D13   D(3,1,11,6)            70.3371         estimate D2E/DX2                !
 ! D14   D(3,1,11,8)           131.5945         estimate D2E/DX2                !
 ! D15   D(3,1,11,9)           120.9285         estimate D2E/DX2                !
 ! D16   D(3,1,11,10)          160.1091         estimate D2E/DX2                !
 ! D17   D(3,1,11,12)         -130.4223         estimate D2E/DX2                !
 ! D18   D(4,1,11,6)          -135.5656         estimate D2E/DX2                !
 ! D19   D(4,1,11,8)           -74.3082         estimate D2E/DX2                !
 ! D20   D(4,1,11,9)           -84.9742         estimate D2E/DX2                !
 ! D21   D(4,1,11,10)          -45.7936         estimate D2E/DX2                !
 ! D22   D(4,1,11,12)           23.675          estimate D2E/DX2                !
 ! D23   D(1,2,12,8)            -9.2862         estimate D2E/DX2                !
 ! D24   D(1,2,12,10)           13.9591         estimate D2E/DX2                !
 ! D25   D(1,5,8,9)            162.4555         estimate D2E/DX2                !
 ! D26   D(1,5,8,10)           -30.0783         estimate D2E/DX2                !
 ! D27   D(1,5,8,12)            53.366          estimate D2E/DX2                !
 ! D28   D(6,5,8,9)             38.8638         estimate D2E/DX2                !
 ! D29   D(6,5,8,10)          -153.67           estimate D2E/DX2                !
 ! D30   D(6,5,8,12)           -70.2257         estimate D2E/DX2                !
 ! D31   D(7,5,8,9)            -75.5848         estimate D2E/DX2                !
 ! D32   D(7,5,8,10)            91.8813         estimate D2E/DX2                !
 ! D33   D(7,5,8,12)           175.3257         estimate D2E/DX2                !
 ! D34   D(7,5,11,2)           156.4543         estimate D2E/DX2                !
 ! D35   D(7,5,11,9)            -1.3673         estimate D2E/DX2                !
 ! D36   D(7,5,11,10)           54.8036         estimate D2E/DX2                !
 ! D37   D(7,5,11,12)           82.8727         estimate D2E/DX2                !
 ! D38   D(5,8,12,2)           -23.3843         estimate D2E/DX2                !
 ! D39   D(9,8,12,2)          -149.042          estimate D2E/DX2                !
 --------------------------------------------------------------------------------
 Trust Radius=3.00D-01 FncErr=1.00D-07 GrdErr=1.00D-06
 Number of steps in this run= 100 maximum allowed number of steps= 100.
 GradGradGradGradGradGradGradGradGradGradGradGradGradGradGradGradGradGrad

 Leave Link  103 at Wed Apr  1 00:23:34 2015, MaxMem= 3758096384 cpu:       0.1
 (Enter /share/apps/g09/l202.exe)
                          Input orientation:                          
 ---------------------------------------------------------------------
 Center     Atomic      Atomic             Coordinates (Angstroms)
 Number     Number       Type             X           Y           Z
 ---------------------------------------------------------------------
      1          6           0       -1.755499   -1.097342    0.179624
      2          1           0       -0.787623   -1.587233    0.028636
      3          1           0       -2.521543   -1.688332   -0.334247
      4          1           0       -1.978581   -1.120813    1.253140
      5          6           0       -1.723685    0.345068   -0.343270
      6          1           0       -1.533104    0.348081   -1.426277
      7          1           0       -2.732784    0.786719   -0.233018
      8          6           0       -0.723485    1.210060    0.343793
      9          1           0       -0.397763    2.145828   -0.099716
     10          1           0       -0.454465    1.029336    1.380733
     11          8           0        1.792104   -0.089407   -0.525056
     12          8           0        2.660630   -0.243131    0.318790
 ---------------------------------------------------------------------
                    Distance matrix (angstroms):
                    1          2          3          4          5
     1  C    0.000000
     2  H    1.095251   0.000000
     3  H    1.095516   1.774369   0.000000
     4  H    1.096701   1.770689   1.771068   0.000000
     5  C    1.534593   2.179062   2.184348   2.182270   0.000000
     6  H    2.172009   2.533368   2.513269   3.087940   1.099652
     7  H    2.162185   3.080221   2.486111   2.533015   1.107019
     8  C    2.533004   2.815721   3.477560   2.799133   1.490190
     9  H    3.526986   3.755557   4.389331   3.873002   2.249472
    10  H    2.767329   2.964050   3.820954   2.638627   2.247516
    11  O    3.754730   3.033982   4.604402   4.294630   3.547194
    12  O    4.500138   3.712310   5.419408   4.813067   4.472865
                    6          7          8          9         10
     6  H    0.000000
     7  H    1.748000   0.000000
     8  C    2.128765   2.132888   0.000000
     9  H    2.506124   2.705045   1.085568   0.000000
    10  H    3.083322   2.802462   1.086406   1.855128   0.000000
    11  O    3.472838   4.618170   2.961706   3.157959   3.151300
    12  O    4.580633   5.518514   3.683018   3.903337   3.528557
                   11         12
    11  O    0.000000
    12  O    1.220674   0.000000
 Stoichiometry    C3H7O2(2)
 Framework group  C1[X(C3H7O2)]
 Deg. of freedom    30
 Full point group                 C1      NOp   1
 Largest Abelian subgroup         C1      NOp   1
 Largest concise Abelian subgroup C1      NOp   1
                         Standard orientation:                         
 ---------------------------------------------------------------------
 Center     Atomic      Atomic             Coordinates (Angstroms)
 Number     Number       Type             X           Y           Z
 ---------------------------------------------------------------------
      1          6           0       -1.755499   -1.097342    0.179624
      2          1           0       -0.787623   -1.587233    0.028636
      3          1           0       -2.521543   -1.688332   -0.334247
      4          1           0       -1.978581   -1.120813    1.253140
      5          6           0       -1.723685    0.345068   -0.343270
      6          1           0       -1.533104    0.348081   -1.426277
      7          1           0       -2.732784    0.786719   -0.233018
      8          6           0       -0.723485    1.210060    0.343793
      9          1           0       -0.397763    2.145828   -0.099716
     10          1           0       -0.454465    1.029336    1.380733
     11          8           0        1.792104   -0.089407   -0.525056
     12          8           0        2.660630   -0.243131    0.318790
 ---------------------------------------------------------------------
 Rotational constants (GHZ):      8.0765813      1.8154132      1.6250138
 Leave Link  202 at Wed Apr  1 00:23:34 2015, MaxMem= 3758096384 cpu:       0.5
 (Enter /share/apps/g09/l301.exe)
 Standard basis: 6-31G(d) (6D, 7F)
 Ernie: Thresh=  0.10000D-02 Tol=  0.10000D-05 Strict=F.
 There are    89 symmetry adapted basis functions of A   symmetry.
 Integral buffers will be    131072 words long.
 Raffenetti 2 integral format.
 Two-electron integral symmetry is turned on.
    89 basis functions,   168 primitive gaussians,    89 cartesian basis functions
    21 alpha electrons       20 beta electrons
       nuclear repulsion energy       159.0510050621 Hartrees.
 IExCor=  402 DFT=T Ex+Corr=B3LYP ExCW=0 ScaHFX=  0.200000
 ScaDFX=  0.800000  0.720000  1.000000  0.810000 ScalE2=  1.000000  1.000000
 IRadAn=      0 IRanWt=     -1 IRanGd=            0 ICorTp=0
 NAtoms=   12 NActive=   12 NUniq=   12 SFac= 7.50D-01 NAtFMM=   80 NAOKFM=F Big=F
 Leave Link  301 at Wed Apr  1 00:23:34 2015, MaxMem= 3758096384 cpu:       0.4
 (Enter /share/apps/g09/l302.exe)
 NPDir=0 NMtPBC=     1 NCelOv=     1 NCel=       1 NClECP=     1 NCelD=      1
         NCelK=      1 NCelE2=     1 NClLst=     1 CellRange=     0.0.
 One-electron integrals computed using PRISM.
 NBasis=    89 RedAO= T  NBF=    89
 NBsUse=    89 1.00D-06 NBFU=    89
 Precomputing XC quadrature grid using
 IXCGrd= 2 IRadAn=           0 IRanWt=          -1 IRanGd=           0 AccXCQ= 1.00D-10.
 NRdTot=     744 NPtTot=       94340 NUsed=       99717 NTot=       99749
 NSgBfM=    89    89    89    89    89 NAtAll=    12    12.
 Leave Link  302 at Wed Apr  1 00:23:35 2015, MaxMem= 3758096384 cpu:       5.0
 (Enter /share/apps/g09/l303.exe)
 DipDrv:  MaxL=1.
 Leave Link  303 at Wed Apr  1 00:23:35 2015, MaxMem= 3758096384 cpu:       0.8
 (Enter /share/apps/g09/l401.exe)
 Harris functional with IExCor=  402 diagonalized for initial guess.
 ExpMin= 1.61D-01 ExpMax= 5.48D+03 ExpMxC= 8.25D+02 IAcc=1 IRadAn=         1 AccDes= 0.00D+00
 HarFok:  IExCor=  402 AccDes= 0.00D+00 IRadAn=         1 IDoV= 1
 ScaDFX=  1.000000  1.000000  1.000000  1.000000
 FoFCou: FMM=F IPFlag=           0 FMFlag=      100000 FMFlg1=           0
         NFxFlg=           0 DoJE=T BraDBF=F KetDBF=T FulRan=T
         Omega=  0.000000  0.000000  1.000000  0.000000  0.000000 ICntrl=     500 IOpCl=  0
         NMat0=    1 NMatS0=    1 NMatT0=    0 NMatD0=    1 NMtDS0=    0 NMtDT0=    0
         I1Cent=           4 NGrid=           0.
 Petite list used in FoFCou.
 Harris En= -268.812741953546    
 Initial guess orbital symmetries:
 Alpha Orbitals:
       Occupied  (A) (A) (A) (A) (A) (A) (A) (A) (A) (A) (A) (A)
                 (A) (A) (A) (A) (A) (A) (A) (A) (A)
       Virtual   (A) (A) (A) (A) (A) (A) (A) (A) (A) (A) (A) (A)
                 (A) (A) (A) (A) (A) (A) (A) (A) (A) (A) (A) (A)
                 (A) (A) (A) (A) (A) (A) (A) (A) (A) (A) (A) (A)
                 (A) (A) (A) (A) (A) (A) (A) (A) (A) (A) (A) (A)
                 (A) (A) (A) (A) (A) (A) (A) (A) (A) (A) (A) (A)
                 (A) (A) (A) (A) (A) (A) (A) (A)
 Beta  Orbitals:
       Occupied  (A) (A) (A) (A) (A) (A) (A) (A) (A) (A) (A) (A)
                 (A) (A) (A) (A) (A) (A) (A) (A)
       Virtual   (A) (A) (A) (A) (A) (A) (A) (A) (A) (A) (A) (A)
                 (A) (A) (A) (A) (A) (A) (A) (A) (A) (A) (A) (A)
                 (A) (A) (A) (A) (A) (A) (A) (A) (A) (A) (A) (A)
                 (A) (A) (A) (A) (A) (A) (A) (A) (A) (A) (A) (A)
                 (A) (A) (A) (A) (A) (A) (A) (A) (A) (A) (A) (A)
                 (A) (A) (A) (A) (A) (A) (A) (A) (A)
 The electronic state of the initial guess is 2-A.
 Initial guess <Sx>= 0.0000 <Sy>= 0.0000 <Sz>= 0.5000 <S**2>= 0.7500 S= 0.5000
 Leave Link  401 at Wed Apr  1 00:23:36 2015, MaxMem= 3758096384 cpu:       5.2
 (Enter /share/apps/g09/l502.exe)
 UHF open shell SCF:
 Requested convergence on RMS density matrix=1.00D-08 within 128 cycles.
 Requested convergence on MAX density matrix=1.00D-06.
 Requested convergence on             energy=1.00D-06.
 No special actions if energy rises.
 Using DIIS extrapolation, IDIIS=  1040.
 Integral symmetry usage will be decided dynamically.
        99596 words used for storage of precomputed grid.
 Keep R1 and R2 ints in memory in canonical form, NReq=17096789.
 IEnd=      143254 IEndB=      143254 NGot=  3758096384 MDV=  3741933723
 LenX=  3741933723 LenY=  3741925361
 Symmetry not used in FoFDir.
 MinBra= 0 MaxBra= 2 Meth= 1.
 IRaf=       0 NMat=   1 IRICut=       1 DoRegI=T DoRafI=F ISym2E= 0 JSym2E=0.
 Integral accuracy reduced to 1.0D-05 until final iterations.

 Cycle   1  Pass 0  IDiag  1:
 E= -268.198476645734    
 DIIS: error= 7.64D-02 at cycle   1 NSaved=   1.
 NSaved= 1 IEnMin= 1 EnMin= -268.198476645734     IErMin= 1 ErrMin= 7.64D-02
 ErrMax= 7.64D-02 EMaxC= 1.00D-01 BMatC= 1.42D+00 BMatP= 1.42D+00
 IDIUse=3 WtCom= 2.36D-01 WtEn= 7.64D-01
 Coeff-Com:  0.100D+01
 Coeff-En:   0.100D+01
 Coeff:      0.100D+01
 Gap=     0.200 Goal=   None    Shift=    0.000
 Gap=    -0.575 Goal=   None    Shift=    0.000
 GapD=   -0.575 DampG=0.250 DampE=0.500 DampFc=0.2500 IDamp=-1.
 Damping current iteration by 2.50D-01
 RMSDP=3.75D-02 MaxDP=5.41D-01              OVMax= 9.99D-01

 Cycle   2  Pass 0  IDiag  1:
 E= -268.133169727345     Delta-E=        0.065306918389 Rises=F Damp=T
 DIIS: error= 3.00D-02 at cycle   2 NSaved=   2.
 NSaved= 2 IEnMin= 1 EnMin= -268.198476645734     IErMin= 2 ErrMin= 3.00D-02
 ErrMax= 3.00D-02 EMaxC= 1.00D-01 BMatC= 2.54D-01 BMatP= 1.42D+00
 IDIUse=3 WtCom= 7.00D-01 WtEn= 3.00D-01
 Coeff-Com:  0.178D+00 0.822D+00
 Coeff-En:   0.549D+00 0.451D+00
 Coeff:      0.289D+00 0.711D+00
 Gap=    -0.004 Goal=   None    Shift=    0.000
 Gap=    -0.577 Goal=   None    Shift=    0.000
 RMSDP=1.20D-02 MaxDP=1.65D-01 DE= 6.53D-02 OVMax= 9.79D-01

 Cycle   3  Pass 0  IDiag  1:
 E= -268.536407980395     Delta-E=       -0.403238253050 Rises=F Damp=F
 DIIS: error= 4.49D-02 at cycle   3 NSaved=   3.
 NSaved= 3 IEnMin= 3 EnMin= -268.536407980395     IErMin= 2 ErrMin= 3.00D-02
 ErrMax= 4.49D-02 EMaxC= 1.00D-01 BMatC= 5.36D-01 BMatP= 2.54D-01
 IDIUse=2 WtCom= 0.00D+00 WtEn= 1.00D+00
 Coeff-En:   0.353D+00 0.000D+00 0.647D+00
 Coeff:      0.353D+00 0.000D+00 0.647D+00
 Gap=     0.030 Goal=   None    Shift=    0.000
 Gap=     0.101 Goal=   None    Shift=    0.000
 RMSDP=7.69D-03 MaxDP=1.68D-01 DE=-4.03D-01 OVMax= 5.92D-01

 Cycle   4  Pass 0  IDiag  1:
 E= -268.681580783218     Delta-E=       -0.145172802823 Rises=F Damp=F
 DIIS: error= 4.94D-02 at cycle   4 NSaved=   4.
 NSaved= 4 IEnMin= 4 EnMin= -268.681580783218     IErMin= 2 ErrMin= 3.00D-02
 ErrMax= 4.94D-02 EMaxC= 1.00D-01 BMatC= 2.33D-01 BMatP= 2.54D-01
 IDIUse=3 WtCom= 5.06D-01 WtEn= 4.94D-01
 Coeff-Com:  0.895D-01 0.150D+00 0.356D+00 0.405D+00
 Coeff-En:   0.000D+00 0.000D+00 0.327D+00 0.673D+00
 Coeff:      0.453D-01 0.757D-01 0.342D+00 0.537D+00
 Gap=     0.057 Goal=   None    Shift=    0.000
 Gap=     0.050 Goal=   None    Shift=    0.000
 RMSDP=4.17D-03 MaxDP=9.41D-02 DE=-1.45D-01 OVMax= 3.71D-01

 Cycle   5  Pass 0  IDiag  1:
 E= -268.747002719032     Delta-E=       -0.065421935814 Rises=F Damp=F
 DIIS: error= 2.43D-02 at cycle   5 NSaved=   5.
 NSaved= 5 IEnMin= 5 EnMin= -268.747002719032     IErMin= 5 ErrMin= 2.43D-02
 ErrMax= 2.43D-02 EMaxC= 1.00D-01 BMatC= 4.74D-02 BMatP= 2.33D-01
 IDIUse=3 WtCom= 7.57D-01 WtEn= 2.43D-01
 Coeff-Com: -0.322D-02-0.283D-01 0.104D+00 0.353D+00 0.574D+00
 Coeff-En:   0.000D+00 0.000D+00 0.000D+00 0.224D+00 0.776D+00
 Coeff:     -0.244D-02-0.214D-01 0.786D-01 0.322D+00 0.623D+00
 Gap=     0.081 Goal=   None    Shift=    0.000
 Gap=     0.059 Goal=   None    Shift=    0.000
 RMSDP=3.28D-03 MaxDP=7.98D-02 DE=-6.54D-02 OVMax= 3.46D-01

 Cycle   6  Pass 0  IDiag  1:
 E= -268.770425776178     Delta-E=       -0.023423057146 Rises=F Damp=F
 DIIS: error= 1.96D-02 at cycle   6 NSaved=   6.
 NSaved= 6 IEnMin= 6 EnMin= -268.770425776178     IErMin= 6 ErrMin= 1.96D-02
 ErrMax= 1.96D-02 EMaxC= 1.00D-01 BMatC= 2.92D-02 BMatP= 4.74D-02
 IDIUse=3 WtCom= 8.04D-01 WtEn= 1.96D-01
 Coeff-Com: -0.116D-01 0.181D-01 0.706D-01 0.181D+00 0.411D+00 0.331D+00
 Coeff-En:   0.000D+00 0.000D+00 0.000D+00 0.000D+00 0.822D-01 0.918D+00
 Coeff:     -0.932D-02 0.145D-01 0.567D-01 0.146D+00 0.346D+00 0.446D+00
 Gap=     0.120 Goal=   None    Shift=    0.000
 Gap=     0.077 Goal=   None    Shift=    0.000
 RMSDP=1.45D-03 MaxDP=2.10D-02 DE=-2.34D-02 OVMax= 1.49D-01

 Cycle   7  Pass 0  IDiag  1:
 E= -268.785816735426     Delta-E=       -0.015390959247 Rises=F Damp=F
 DIIS: error= 7.48D-03 at cycle   7 NSaved=   7.
 NSaved= 7 IEnMin= 7 EnMin= -268.785816735426     IErMin= 7 ErrMin= 7.48D-03
 ErrMax= 7.48D-03 EMaxC= 1.00D-01 BMatC= 4.58D-03 BMatP= 2.92D-02
 IDIUse=3 WtCom= 9.25D-01 WtEn= 7.48D-02
 Coeff-Com:  0.220D-03 0.301D-01 0.628D-01 0.852D-01 0.147D+00 0.104D+00
 Coeff-Com:  0.570D+00
 Coeff-En:   0.000D+00 0.000D+00 0.000D+00 0.000D+00 0.000D+00 0.000D+00
 Coeff-En:   0.100D+01
 Coeff:      0.203D-03 0.278D-01 0.581D-01 0.788D-01 0.136D+00 0.966D-01
 Coeff:      0.602D+00
 Gap=     0.146 Goal=   None    Shift=    0.000
 Gap=     0.092 Goal=   None    Shift=    0.000
 RMSDP=1.17D-03 MaxDP=2.17D-02 DE=-1.54D-02 OVMax= 1.12D-01

 Cycle   8  Pass 0  IDiag  1:
 E= -268.789230025847     Delta-E=       -0.003413290421 Rises=F Damp=F
 DIIS: error= 6.68D-03 at cycle   8 NSaved=   8.
 NSaved= 8 IEnMin= 8 EnMin= -268.789230025847     IErMin= 8 ErrMin= 6.68D-03
 ErrMax= 6.68D-03 EMaxC= 1.00D-01 BMatC= 9.86D-03 BMatP= 4.58D-03
 IDIUse=3 WtCom= 9.25D-01 WtEn= 7.48D-02
 Coeff-Com:  0.104D-01 0.554D-03 0.779D-01 0.140D+00-0.785D-01-0.928D+00
 Coeff-Com:  0.692D+00 0.108D+01
 Coeff-En:   0.000D+00 0.000D+00 0.000D+00 0.000D+00 0.000D+00 0.000D+00
 Coeff-En:   0.000D+00 0.100D+01
 Coeff:      0.960D-02 0.513D-03 0.720D-01 0.130D+00-0.726D-01-0.858D+00
 Coeff:      0.641D+00 0.108D+01
 Gap=     0.217 Goal=   None    Shift=    0.000
 Gap=     0.102 Goal=   None    Shift=    0.000
 RMSDP=1.13D-03 MaxDP=1.34D-02 DE=-3.41D-03 OVMax= 8.29D-02

 Cycle   9  Pass 0  IDiag  1:
 E= -268.793562598580     Delta-E=       -0.004332572733 Rises=F Damp=F
 DIIS: error= 1.82D-03 at cycle   9 NSaved=   9.
 NSaved= 9 IEnMin= 9 EnMin= -268.793562598580     IErMin= 9 ErrMin= 1.82D-03
 ErrMax= 1.82D-03 EMaxC= 1.00D-01 BMatC= 1.09D-03 BMatP= 4.58D-03
 IDIUse=3 WtCom= 9.82D-01 WtEn= 1.82D-02
 Coeff-Com: -0.108D-01 0.405D-02 0.229D-01 0.897D-01 0.135D+00-0.119D+00
 Coeff-Com: -0.353D+00 0.212D+00 0.102D+01
 Coeff-En:   0.000D+00 0.000D+00 0.000D+00 0.000D+00 0.000D+00 0.000D+00
 Coeff-En:   0.000D+00 0.000D+00 0.100D+01
 Coeff:     -0.106D-01 0.397D-02 0.225D-01 0.881D-01 0.132D+00-0.117D+00
 Coeff:     -0.346D+00 0.208D+00 0.102D+01
 Gap=     0.223 Goal=   None    Shift=    0.000
 Gap=     0.095 Goal=   None    Shift=    0.000
 RMSDP=1.49D-04 MaxDP=2.17D-03 DE=-4.33D-03 OVMax= 5.78D-03

 Cycle  10  Pass 0  IDiag  1:
 E= -268.793732788368     Delta-E=       -0.000170189788 Rises=F Damp=F
 DIIS: error= 1.48D-03 at cycle  10 NSaved=  10.
 NSaved=10 IEnMin=10 EnMin= -268.793732788368     IErMin=10 ErrMin= 1.48D-03
 ErrMax= 1.48D-03 EMaxC= 1.00D-01 BMatC= 4.37D-04 BMatP= 1.09D-03
 IDIUse=3 WtCom= 9.85D-01 WtEn= 1.48D-02
 Coeff-Com: -0.919D-02 0.576D-02 0.140D-02 0.352D-01 0.112D+00 0.146D+00
 Coeff-Com: -0.391D+00-0.226D+00 0.534D+00 0.791D+00
 Coeff-En:   0.000D+00 0.000D+00 0.000D+00 0.000D+00 0.000D+00 0.000D+00
 Coeff-En:   0.000D+00 0.000D+00 0.000D+00 0.100D+01
 Coeff:     -0.906D-02 0.568D-02 0.138D-02 0.347D-01 0.111D+00 0.144D+00
 Coeff:     -0.385D+00-0.222D+00 0.526D+00 0.794D+00
 Gap=     0.234 Goal=   None    Shift=    0.000
 Gap=     0.095 Goal=   None    Shift=    0.000
 RMSDP=1.06D-04 MaxDP=1.64D-03 DE=-1.70D-04 OVMax= 4.87D-03

 Cycle  11  Pass 0  IDiag  1:
 E= -268.793854381961     Delta-E=       -0.000121593593 Rises=F Damp=F
 DIIS: error= 5.99D-04 at cycle  11 NSaved=  11.
 NSaved=11 IEnMin=11 EnMin= -268.793854381961     IErMin=11 ErrMin= 5.99D-04
 ErrMax= 5.99D-04 EMaxC= 1.00D-01 BMatC= 8.69D-05 BMatP= 4.37D-04
 IDIUse=3 WtCom= 9.94D-01 WtEn= 5.99D-03
 Coeff-Com: -0.221D-02 0.206D-02-0.278D-02 0.712D-02 0.250D-01 0.723D-01
 Coeff-Com: -0.148D+00-0.174D+00 0.306D-01 0.269D+00 0.921D+00
 Coeff-En:   0.000D+00 0.000D+00 0.000D+00 0.000D+00 0.000D+00 0.000D+00
 Coeff-En:   0.000D+00 0.000D+00 0.000D+00 0.000D+00 0.100D+01
 Coeff:     -0.220D-02 0.205D-02-0.276D-02 0.708D-02 0.248D-01 0.718D-01
 Coeff:     -0.148D+00-0.173D+00 0.304D-01 0.268D+00 0.922D+00
 Gap=     0.248 Goal=   None    Shift=    0.000
 Gap=     0.098 Goal=   None    Shift=    0.000
 RMSDP=1.44D-04 MaxDP=1.83D-03 DE=-1.22D-04 OVMax= 1.01D-02

 Cycle  12  Pass 0  IDiag  1:
 E= -268.793910269480     Delta-E=       -0.000055887519 Rises=F Damp=F
 DIIS: error= 1.49D-04 at cycle  12 NSaved=  12.
 NSaved=12 IEnMin=12 EnMin= -268.793910269480     IErMin=12 ErrMin= 1.49D-04
 ErrMax= 1.49D-04 EMaxC= 1.00D-01 BMatC= 2.89D-06 BMatP= 8.69D-05
 IDIUse=3 WtCom= 9.99D-01 WtEn= 1.49D-03
 Coeff-Com:  0.149D-03-0.511D-03-0.410D-03 0.179D-02 0.319D-03 0.693D-04
 Coeff-Com: -0.239D-01 0.154D-02 0.326D-01-0.687D-02-0.496D-01 0.104D+01
 Coeff-En:   0.000D+00 0.000D+00 0.000D+00 0.000D+00 0.000D+00 0.000D+00
 Coeff-En:   0.000D+00 0.000D+00 0.000D+00 0.000D+00 0.000D+00 0.100D+01
 Coeff:      0.149D-03-0.510D-03-0.409D-03 0.178D-02 0.318D-03 0.692D-04
 Coeff:     -0.239D-01 0.154D-02 0.325D-01-0.686D-02-0.495D-01 0.104D+01
 Gap=     0.250 Goal=   None    Shift=    0.000
 Gap=     0.100 Goal=   None    Shift=    0.000
 RMSDP=4.00D-05 MaxDP=7.36D-04 DE=-5.59D-05 OVMax= 3.79D-03

 Cycle  13  Pass 0  IDiag  1:
 E= -268.793912768029     Delta-E=       -0.000002498550 Rises=F Damp=F
 DIIS: error= 4.43D-05 at cycle  13 NSaved=  13.
 NSaved=13 IEnMin=13 EnMin= -268.793912768029     IErMin=13 ErrMin= 4.43D-05
 ErrMax= 4.43D-05 EMaxC= 1.00D-01 BMatC= 6.56D-07 BMatP= 2.89D-06
 IDIUse=1 WtCom= 1.00D+00 WtEn= 0.00D+00
 Coeff-Com:  0.290D-03-0.371D-03 0.605D-04-0.551D-03-0.732D-03-0.120D-02
 Coeff-Com: -0.193D-03 0.109D-01 0.159D-01-0.648D-02-0.709D-01 0.110D+00
 Coeff-Com:  0.943D+00
 Coeff:      0.290D-03-0.371D-03 0.605D-04-0.551D-03-0.732D-03-0.120D-02
 Coeff:     -0.193D-03 0.109D-01 0.159D-01-0.648D-02-0.709D-01 0.110D+00
 Coeff:      0.943D+00
 Gap=     0.250 Goal=   None    Shift=    0.000
 Gap=     0.100 Goal=   None    Shift=    0.000
 RMSDP=7.07D-06 MaxDP=1.14D-04 DE=-2.50D-06 OVMax= 5.57D-04

 Initial convergence to 1.0D-05 achieved.  Increase integral accuracy.
 Cycle  14  Pass 1  IDiag  1:
 E= -268.793940362355     Delta-E=       -0.000027594325 Rises=F Damp=F
 DIIS: error= 1.42D-05 at cycle   1 NSaved=   1.
 NSaved= 1 IEnMin= 1 EnMin= -268.793940362355     IErMin= 1 ErrMin= 1.42D-05
 ErrMax= 1.42D-05 EMaxC= 1.00D-01 BMatC= 6.19D-08 BMatP= 6.19D-08
 IDIUse=1 WtCom= 1.00D+00 WtEn= 0.00D+00
 Coeff-Com:  0.100D+01
 Coeff:      0.100D+01
 Gap=     0.250 Goal=   None    Shift=    0.000
 Gap=     0.100 Goal=   None    Shift=    0.000
 RMSDP=7.07D-06 MaxDP=1.14D-04 DE=-2.76D-05 OVMax= 1.21D-04

 Cycle  15  Pass 1  IDiag  1:
 E= -268.793940374884     Delta-E=       -0.000000012530 Rises=F Damp=F
 DIIS: error= 1.03D-05 at cycle   2 NSaved=   2.
 NSaved= 2 IEnMin= 2 EnMin= -268.793940374884     IErMin= 2 ErrMin= 1.03D-05
 ErrMax= 1.03D-05 EMaxC= 1.00D-01 BMatC= 4.05D-08 BMatP= 6.19D-08
 IDIUse=1 WtCom= 1.00D+00 WtEn= 0.00D+00
 Coeff-Com:  0.431D+00 0.569D+00
 Coeff:      0.431D+00 0.569D+00
 Gap=     0.250 Goal=   None    Shift=    0.000
 Gap=     0.100 Goal=   None    Shift=    0.000
 RMSDP=1.45D-06 MaxDP=3.15D-05 DE=-1.25D-08 OVMax= 9.71D-05

 Cycle  16  Pass 1  IDiag  1:
 E= -268.793940381791     Delta-E=       -0.000000006906 Rises=F Damp=F
 DIIS: error= 1.12D-05 at cycle   3 NSaved=   3.
 NSaved= 3 IEnMin= 3 EnMin= -268.793940381791     IErMin= 2 ErrMin= 1.03D-05
 ErrMax= 1.12D-05 EMaxC= 1.00D-01 BMatC= 1.49D-08 BMatP= 4.05D-08
 IDIUse=1 WtCom= 1.00D+00 WtEn= 0.00D+00
 Coeff-Com:  0.900D-01 0.366D+00 0.544D+00
 Coeff:      0.900D-01 0.366D+00 0.544D+00
 Gap=     0.250 Goal=   None    Shift=    0.000
 Gap=     0.100 Goal=   None    Shift=    0.000
 RMSDP=5.90D-07 MaxDP=1.71D-05 DE=-6.91D-09 OVMax= 3.15D-05

 Cycle  17  Pass 1  IDiag  1:
 E= -268.793940383343     Delta-E=       -0.000000001553 Rises=F Damp=F
 DIIS: error= 6.87D-06 at cycle   4 NSaved=   4.
 NSaved= 4 IEnMin= 4 EnMin= -268.793940383343     IErMin= 4 ErrMin= 6.87D-06
 ErrMax= 6.87D-06 EMaxC= 1.00D-01 BMatC= 6.52D-09 BMatP= 1.49D-08
 IDIUse=1 WtCom= 1.00D+00 WtEn= 0.00D+00
 Coeff-Com: -0.354D-01 0.153D+00 0.431D+00 0.452D+00
 Coeff:     -0.354D-01 0.153D+00 0.431D+00 0.452D+00
 Gap=     0.250 Goal=   None    Shift=    0.000
 Gap=     0.100 Goal=   None    Shift=    0.000
 RMSDP=3.38D-07 MaxDP=9.91D-06 DE=-1.55D-09 OVMax= 1.61D-05

 Cycle  18  Pass 1  IDiag  1:
 E= -268.793940384581     Delta-E=       -0.000000001238 Rises=F Damp=F
 DIIS: error= 1.24D-06 at cycle   5 NSaved=   5.
 NSaved= 5 IEnMin= 5 EnMin= -268.793940384581     IErMin= 5 ErrMin= 1.24D-06
 ErrMax= 1.24D-06 EMaxC= 1.00D-01 BMatC= 2.03D-10 BMatP= 6.52D-09
 IDIUse=1 WtCom= 1.00D+00 WtEn= 0.00D+00
 Coeff-Com: -0.217D-01 0.368D-01 0.108D+00 0.198D+00 0.679D+00
 Coeff:     -0.217D-01 0.368D-01 0.108D+00 0.198D+00 0.679D+00
 Gap=     0.250 Goal=   None    Shift=    0.000
 Gap=     0.100 Goal=   None    Shift=    0.000
 RMSDP=8.97D-08 MaxDP=1.93D-06 DE=-1.24D-09 OVMax= 5.21D-06

 Cycle  19  Pass 1  IDiag  1:
 E= -268.793940384626     Delta-E=       -0.000000000044 Rises=F Damp=F
 DIIS: error= 3.55D-07 at cycle   6 NSaved=   6.
 NSaved= 6 IEnMin= 6 EnMin= -268.793940384626     IErMin= 6 ErrMin= 3.55D-07
 ErrMax= 3.55D-07 EMaxC= 1.00D-01 BMatC= 2.45D-11 BMatP= 2.03D-10
 IDIUse=1 WtCom= 1.00D+00 WtEn= 0.00D+00
 Coeff-Com:  0.181D-02-0.207D-01-0.816D-01-0.371D-01 0.190D+00 0.948D+00
 Coeff:      0.181D-02-0.207D-01-0.816D-01-0.371D-01 0.190D+00 0.948D+00
 Gap=     0.250 Goal=   None    Shift=    0.000
 Gap=     0.100 Goal=   None    Shift=    0.000
 RMSDP=3.78D-08 MaxDP=8.16D-07 DE=-4.45D-11 OVMax= 9.69D-07

 Cycle  20  Pass 1  IDiag  1:
 E= -268.793940384635     Delta-E=       -0.000000000009 Rises=F Damp=F
 DIIS: error= 1.03D-07 at cycle   7 NSaved=   7.
 NSaved= 7 IEnMin= 7 EnMin= -268.793940384635     IErMin= 7 ErrMin= 1.03D-07
 ErrMax= 1.03D-07 EMaxC= 1.00D-01 BMatC= 1.57D-12 BMatP= 2.45D-11
 IDIUse=1 WtCom= 1.00D+00 WtEn= 0.00D+00
 Coeff-Com:  0.187D-02-0.825D-02-0.327D-01-0.188D-01 0.131D-01 0.298D+00
 Coeff-Com:  0.747D+00
 Coeff:      0.187D-02-0.825D-02-0.327D-01-0.188D-01 0.131D-01 0.298D+00
 Coeff:      0.747D+00
 Gap=     0.250 Goal=   None    Shift=    0.000
 Gap=     0.100 Goal=   None    Shift=    0.000
 RMSDP=9.16D-09 MaxDP=1.49D-07 DE=-9.21D-12 OVMax= 3.27D-07

 SCF Done:  E(UB3LYP) =  -268.793940385     A.U. after   20 cycles
             Convg  =    0.9159D-08             -V/T =  2.0092
 <Sx>= 0.0000 <Sy>= 0.0000 <Sz>= 0.5000 <S**2>= 1.6806 S= 0.8895
 <L.S>= 0.000000000000E+00
 KE= 2.663339017846D+02 PE=-9.463586626995D+02 EE= 2.521798154682D+02
 Annihilation of the first spin contaminant:
 S**2 before annihilation     1.6806,   after     0.7795
 Leave Link  502 at Wed Apr  1 00:23:45 2015, MaxMem= 3758096384 cpu:     102.6
 (Enter /share/apps/g09/l601.exe)
 Copying SCF densities to generalized density rwf, IOpCl= 1 IROHF=0.

 **********************************************************************

            Population analysis using the SCF density.

 **********************************************************************

 Orbital symmetries:
 Alpha Orbitals:
       Occupied  (A) (A) (A) (A) (A) (A) (A) (A) (A) (A) (A) (A)
                 (A) (A) (A) (A) (A) (A) (A) (A) (A)
       Virtual   (A) (A) (A) (A) (A) (A) (A) (A) (A) (A) (A) (A)
                 (A) (A) (A) (A) (A) (A) (A) (A) (A) (A) (A) (A)
                 (A) (A) (A) (A) (A) (A) (A) (A) (A) (A) (A) (A)
                 (A) (A) (A) (A) (A) (A) (A) (A) (A) (A) (A) (A)
                 (A) (A) (A) (A) (A) (A) (A) (A) (A) (A) (A) (A)
                 (A) (A) (A) (A) (A) (A) (A) (A)
 Beta  Orbitals:
       Occupied  (A) (A) (A) (A) (A) (A) (A) (A) (A) (A) (A) (A)
                 (A) (A) (A) (A) (A) (A) (A) (A)
       Virtual   (A) (A) (A) (A) (A) (A) (A) (A) (A) (A) (A) (A)
                 (A) (A) (A) (A) (A) (A) (A) (A) (A) (A) (A) (A)
                 (A) (A) (A) (A) (A) (A) (A) (A) (A) (A) (A) (A)
                 (A) (A) (A) (A) (A) (A) (A) (A) (A) (A) (A) (A)
                 (A) (A) (A) (A) (A) (A) (A) (A) (A) (A) (A) (A)
                 (A) (A) (A) (A) (A) (A) (A) (A) (A)
 The electronic state is 2-A.
 Alpha  occ. eigenvalues --  -19.29768 -19.29168 -10.19097 -10.18156 -10.17582
 Alpha  occ. eigenvalues --   -1.27956  -0.82270  -0.77494  -0.65987  -0.57114
 Alpha  occ. eigenvalues --   -0.54136  -0.53861  -0.53004  -0.45000  -0.43543
 Alpha  occ. eigenvalues --   -0.40434  -0.35345  -0.34838  -0.34171  -0.29365
 Alpha  occ. eigenvalues --   -0.29140
 Alpha virt. eigenvalues --   -0.04136   0.10313   0.14545   0.14781   0.15584
 Alpha virt. eigenvalues --    0.17120   0.18680   0.20181   0.20784   0.24445
 Alpha virt. eigenvalues --    0.28235   0.50977   0.51756   0.53752   0.57604
 Alpha virt. eigenvalues --    0.58889   0.62599   0.66983   0.69835   0.71904
 Alpha virt. eigenvalues --    0.75288   0.78576   0.79405   0.84015   0.85241
 Alpha virt. eigenvalues --    0.86839   0.88680   0.89295   0.90964   0.92260
 Alpha virt. eigenvalues --    0.94573   0.95795   0.98736   1.00563   1.06164
 Alpha virt. eigenvalues --    1.22181   1.33265   1.43888   1.49395   1.50225
 Alpha virt. eigenvalues --    1.51321   1.53302   1.54990   1.59710   1.72370
 Alpha virt. eigenvalues --    1.85157   1.90607   1.91025   1.93370   1.95260
 Alpha virt. eigenvalues --    2.01400   2.08728   2.17534   2.24222   2.33579
 Alpha virt. eigenvalues --    2.36829   2.40518   2.43094   2.54639   2.55201
 Alpha virt. eigenvalues --    2.61816   2.68604   2.82762   3.19731   3.53904
 Alpha virt. eigenvalues --    4.12568   4.24744   4.44934
  Beta  occ. eigenvalues --  -19.26894 -19.26337 -10.19475 -10.19014 -10.17605
  Beta  occ. eigenvalues --   -1.22302  -0.78420  -0.73663  -0.67632  -0.58443
  Beta  occ. eigenvalues --   -0.49246  -0.45562  -0.44514  -0.44093  -0.43767
  Beta  occ. eigenvalues --   -0.40936  -0.35932  -0.35384  -0.34471  -0.20015
  Beta virt. eigenvalues --   -0.10041  -0.10006   0.10142   0.13534   0.14405
  Beta virt. eigenvalues --    0.15337   0.17111   0.18472   0.19763   0.23883
  Beta virt. eigenvalues --    0.24939   0.27658   0.50654   0.51291   0.52054
  Beta virt. eigenvalues --    0.56672   0.58438   0.59938   0.66754   0.70603
  Beta virt. eigenvalues --    0.72796   0.75888   0.79790   0.81801   0.85523
  Beta virt. eigenvalues --    0.86585   0.87942   0.89501   0.90667   0.92416
  Beta virt. eigenvalues --    0.93435   0.94027   0.95501   0.99454   1.02327
  Beta virt. eigenvalues --    1.07754   1.22419   1.35217   1.42325   1.49493
  Beta virt. eigenvalues --    1.53275   1.54159   1.58147   1.59684   1.60119
  Beta virt. eigenvalues --    1.67319   1.83863   1.91392   1.94174   1.97185
  Beta virt. eigenvalues --    1.98052   1.99640   2.06556   2.14783   2.23910
  Beta virt. eigenvalues --    2.33028   2.35553   2.42375   2.44010   2.58749
  Beta virt. eigenvalues --    2.59202   2.61104   2.68094   2.85237   3.23971
  Beta virt. eigenvalues --    3.58096   4.10980   4.23480   4.44515
          Condensed to atoms (all electrons):
              1          2          3          4          5          6
     1  C    5.065032   0.377108   0.370936   0.378513   0.378416  -0.036011
     2  H    0.377108   0.562613  -0.029321  -0.031868  -0.035301  -0.004858
     3  H    0.370936  -0.029321   0.575423  -0.031128  -0.028581  -0.002784
     4  H    0.378513  -0.031868  -0.031128   0.575008  -0.035649   0.005055
     5  C    0.378416  -0.035301  -0.028581  -0.035649   4.912688   0.377854
     6  H   -0.036011  -0.004858  -0.002784   0.005055   0.377854   0.594246
     7  H   -0.040858   0.005384  -0.002346  -0.004517   0.369781  -0.042179
     8  C   -0.047157  -0.001066   0.004446  -0.004143   0.392901  -0.040943
     9  H    0.003889   0.000022  -0.000154  -0.000010  -0.031465  -0.003923
    10  H   -0.005493   0.000183   0.000049   0.004172  -0.039582   0.004455
    11  O   -0.000965   0.003237   0.000008  -0.000005   0.000097   0.000031
    12  O    0.000031  -0.000098   0.000000   0.000001   0.000009   0.000004
              7          8          9         10         11         12
     1  C   -0.040858  -0.047157   0.003889  -0.005493  -0.000965   0.000031
     2  H    0.005384  -0.001066   0.000022   0.000183   0.003237  -0.000098
     3  H   -0.002346   0.004446  -0.000154   0.000049   0.000008   0.000000
     4  H   -0.004517  -0.004143  -0.000010   0.004172  -0.000005   0.000001
     5  C    0.369781   0.392901  -0.031465  -0.039582   0.000097   0.000009
     6  H   -0.042179  -0.040943  -0.003923   0.004455   0.000031   0.000004
     7  H    0.614659  -0.049534   0.000655   0.000692   0.000029  -0.000001
     8  C   -0.049534   5.284252   0.367792   0.373068   0.012320  -0.001835
     9  H    0.000655   0.367792   0.554408  -0.037435  -0.000067   0.000015
    10  H    0.000692   0.373068  -0.037435   0.553034  -0.000287   0.000306
    11  O    0.000029   0.012320  -0.000067  -0.000287   7.884746   0.112481
    12  O   -0.000001  -0.001835   0.000015   0.000306   0.112481   7.915138
 Mulliken atomic charges:
              1
     1  C   -0.443441
     2  H    0.153966
     3  H    0.143454
     4  H    0.144570
     5  C   -0.261167
     6  H    0.149054
     7  H    0.148235
     8  C   -0.290101
     9  H    0.146272
    10  H    0.146837
    11  O   -0.011626
    12  O   -0.026052
 Sum of Mulliken atomic charges =   0.00000
 Mulliken charges with hydrogens summed into heavy atoms:
              1
     1  C   -0.001452
     5  C    0.036122
     8  C    0.003008
    11  O   -0.011626
    12  O   -0.026052
 Sum of Mulliken charges with hydrogens summed into heavy atoms =   0.00000
          Atomic-Atomic Spin Densities.
              1          2          3          4          5          6
     1  C   -0.018629   0.004600   0.003036  -0.000969  -0.007168  -0.006057
     2  H    0.004600  -0.003234  -0.001527   0.000989   0.000828   0.001234
     3  H    0.003036  -0.001527  -0.001066   0.000583  -0.000309   0.000918
     4  H   -0.000969   0.000989   0.000583  -0.000405  -0.000633  -0.000281
     5  C   -0.007168   0.000828  -0.000309  -0.000633   0.061429  -0.006116
     6  H   -0.006057   0.001234   0.000918  -0.000281  -0.006116  -0.033070
     7  H    0.008039  -0.000843  -0.001895   0.001376  -0.012269   0.013805
     8  C    0.010219  -0.004397  -0.000364   0.000206   0.036704   0.011920
     9  H   -0.000043   0.000032   0.000001  -0.000019   0.000312  -0.000868
    10  H   -0.000785   0.000111   0.000046  -0.000147  -0.000217  -0.000163
    11  O   -0.000172   0.000528   0.000002   0.000007   0.000229   0.000017
    12  O    0.000043  -0.000214   0.000000  -0.000002  -0.000012   0.000000
              7          8          9         10         11         12
     1  C    0.008039   0.010219  -0.000043  -0.000785  -0.000172   0.000043
     2  H   -0.000843  -0.004397   0.000032   0.000111   0.000528  -0.000214
     3  H   -0.001895  -0.000364   0.000001   0.000046   0.000002   0.000000
     4  H    0.001376   0.000206  -0.000019  -0.000147   0.000007  -0.000002
     5  C   -0.012269   0.036704   0.000312  -0.000217   0.000229  -0.000012
     6  H    0.013805   0.011920  -0.000868  -0.000163   0.000017   0.000000
     7  H   -0.096191   0.029772   0.000593   0.000603  -0.000006   0.000000
     8  C    0.029772  -1.122950   0.006491   0.007677  -0.003782   0.000845
     9  H    0.000593   0.006491   0.043742  -0.002270   0.000049  -0.000009
    10  H    0.000603   0.007677  -0.002270   0.043120  -0.000289   0.000051
    11  O   -0.000006  -0.003782   0.000049  -0.000289   1.292660  -0.312301
    12  O    0.000000   0.000845  -0.000009   0.000051  -0.312301   1.279113
 Mulliken atomic spin densities:
              1
     1  C   -0.007886
     2  H   -0.001892
     3  H   -0.000575
     4  H    0.000706
     5  C    0.072779
     6  H   -0.018662
     7  H   -0.057017
     8  C   -1.027659
     9  H    0.048012
    10  H    0.047738
    11  O    0.976941
    12  O    0.967515
 Sum of Mulliken atomic spin densities =   1.00000
 Electronic spatial extent (au):  <R**2>=            723.4846
 Charge=              0.0000 electrons
 Dipole moment (field-independent basis, Debye):
    X=             -0.8808    Y=              0.2058    Z=             -0.0382  Tot=              0.9053
 Quadrupole moment (field-independent basis, Debye-Ang):
   XX=            -31.3689   YY=            -30.2829   ZZ=            -30.2300
   XY=              0.1942   XZ=              0.0352   YZ=             -0.1122
 Traceless Quadrupole moment (field-independent basis, Debye-Ang):
   XX=             -0.7416   YY=              0.3444   ZZ=              0.3972
   XY=              0.1942   XZ=              0.0352   YZ=             -0.1122
 Octapole moment (field-independent basis, Debye-Ang**2):
  XXX=             16.1131  YYY=             -0.2845  ZZZ=             -0.3848  XYY=              8.1123
  XXY=             -0.7528  XXZ=             -2.2552  XZZ=              6.4414  YZZ=             -0.4441
  YYZ=             -1.5691  XYZ=              0.3146
 Hexadecapole moment (field-independent basis, Debye-Ang**3):
 XXXX=           -639.3607 YYYY=           -174.2796 ZZZZ=            -69.4847 XXXY=             -1.4038
 XXXZ=             -2.0104 YYYX=             -2.8800 YYYZ=             -1.8177 ZZZX=             -0.5076
 ZZZY=             -0.3953 XXYY=           -135.4785 XXZZ=           -118.1714 YYZZ=            -42.2614
 XXYZ=              0.4726 YYXZ=              1.5116 ZZXY=             -0.4918
 N-N= 1.590510050621D+02 E-N=-1.409068563879D+03  KE= 3.968452274173D+02
                          Isotropic Fermi Contact Couplings
        Atom                 a.u.       MegaHertz       Gauss      10(-4) cm-1
     1  C(13)             -0.01104     -12.40582      -4.42670      -4.13814
     2  H(1)               0.00048       2.15428       0.76870       0.71859
     3  H(1)               0.00018       0.82646       0.29490       0.27568
     4  H(1)               0.00030       1.34983       0.48165       0.45025
     5  C(13)              0.02409      27.08457       9.66445       9.03444
     6  H(1)              -0.01021     -45.61984     -16.27829     -15.21714
     7  H(1)              -0.02974    -132.94669     -47.43868     -44.34624
     8  C(13)             -0.11591    -130.30277     -46.49527     -43.46433
     9  H(1)               0.01431      63.96710      22.82505      21.33713
    10  H(1)               0.01422      63.54614      22.67484      21.19671
    11  O(17)              0.12443     -75.42895     -26.91492     -25.16039
    12  O(17)              0.13477     -81.69695     -29.15150     -27.25117
 --------------------------------------------------------
       Center         ----  Spin Dipole Couplings  ----
                      3XX-RR        3YY-RR        3ZZ-RR
 --------------------------------------------------------
     1   Atom        0.014137     -0.018363      0.004226
     2   Atom        0.015714     -0.014689     -0.001025
     3   Atom        0.004594     -0.005492      0.000898
     4   Atom        0.006787     -0.007773      0.000986
     5   Atom       -0.001809     -0.002362      0.004172
     6   Atom        0.011651      0.000710     -0.012361
     7   Atom       -0.008590      0.003361      0.005230
     8   Atom       -0.414484      0.106758      0.307727
     9   Atom        0.020366     -0.048099      0.027733
    10   Atom        0.026718      0.041338     -0.068056
    11   Atom       -0.577625      1.097058     -0.519433
    12   Atom       -0.586875      1.162798     -0.575923
 --------------------------------------------------------
                        XY            XZ            YZ
 --------------------------------------------------------
     1   Atom       -0.009015      0.000338      0.005541
     2   Atom        0.008177     -0.002393     -0.002218
     3   Atom       -0.001861     -0.000710     -0.001248
     4   Atom       -0.003489     -0.000156      0.003956
     5   Atom       -0.007073     -0.002073     -0.009671
     6   Atom       -0.005862     -0.005793     -0.008651
     7   Atom       -0.005641     -0.007175     -0.003575
     8   Atom        0.601031      0.419556     -0.271888
     9   Atom       -0.021577      0.033717      0.039486
    10   Atom        0.024338     -0.024738      0.016497
    11   Atom        0.305412     -1.668052      0.282055
    12   Atom        0.374773     -1.604945      0.211540
 --------------------------------------------------------


 ---------------------------------------------------------------------------------
              Anisotropic Spin Dipole Couplings in Principal Axis System
 ---------------------------------------------------------------------------------

       Atom             a.u.   MegaHertz   Gauss  10(-4) cm-1        Axes

              Baa    -0.0218    -2.930    -1.046    -0.977  0.2397  0.9490 -0.2049
     1 C(13)  Bbb     0.0053     0.707     0.252     0.236  0.1406  0.1749  0.9745
              Bcc     0.0166     2.223     0.793     0.742  0.9606 -0.2624 -0.0915
 
              Baa    -0.0169    -9.020    -3.218    -3.009 -0.2351  0.9669  0.0996
     2 H(1)   Bbb    -0.0013    -0.691    -0.247    -0.231  0.1676 -0.0607  0.9840
              Bcc     0.0182     9.711     3.465     3.239  0.9574  0.2480 -0.1478
 
              Baa    -0.0061    -3.248    -1.159    -1.083  0.1808  0.9648  0.1908
     3 H(1)   Bbb     0.0011     0.588     0.210     0.196  0.0868 -0.2089  0.9741
              Bcc     0.0050     2.660     0.949     0.887  0.9797 -0.1595 -0.1216
 
              Baa    -0.0099    -5.290    -1.887    -1.764  0.1899  0.9238 -0.3325
     4 H(1)   Bbb     0.0022     1.149     0.410     0.383  0.2447  0.2835  0.9272
              Bcc     0.0078     4.140     1.477     1.381  0.9508 -0.2574 -0.1722
 
              Baa    -0.0135    -1.814    -0.647    -0.605  0.5178  0.7237  0.4563
     5 C(13)  Bbb     0.0019     0.251     0.090     0.084  0.8285 -0.2912 -0.4784
              Bcc     0.0116     1.563     0.558     0.521  0.2133 -0.6257  0.7503
 
              Baa    -0.0187    -9.973    -3.559    -3.327  0.2511  0.4565  0.8536
     6 H(1)   Bbb     0.0043     2.306     0.823     0.769  0.2512  0.8209 -0.5129
              Bcc     0.0144     7.667     2.736     2.558  0.9348 -0.3432 -0.0915
 
              Baa    -0.0141    -7.540    -2.691    -2.515  0.8540  0.3534  0.3817
     7 H(1)   Bbb     0.0055     2.924     1.043     0.975 -0.4437  0.8779  0.1799
              Bcc     0.0087     4.617     1.647     1.540 -0.2715 -0.3231  0.9066
 
              Baa    -1.0001  -134.202   -47.886   -44.765  0.7813 -0.5120 -0.3571
     8 C(13)  Bbb     0.4971    66.702    23.801    22.249 -0.0493 -0.6209  0.7823
              Bcc     0.5030    67.500    24.086    22.516  0.6222  0.5936  0.5104
 
              Baa    -0.0767   -40.924   -14.603   -13.651  0.3348  0.8406 -0.4259
     9 H(1)   Bbb     0.0160     8.554     3.052     2.853  0.7470 -0.5123 -0.4238
              Bcc     0.0607    32.369    11.550    10.797  0.5744  0.1763  0.7994
 
              Baa    -0.0782   -41.738   -14.893   -13.922  0.2659 -0.1847  0.9462
    10 H(1)   Bbb     0.0188    10.012     3.573     3.340  0.7520 -0.5744 -0.3234
              Bcc     0.0595    31.726    11.321    10.583  0.6032  0.7975 -0.0139
 
              Baa    -2.2681   164.121    58.563    54.745  0.7082 -0.1225  0.6953
    11 O(17)  Bbb     1.1149   -80.672   -28.786   -26.909 -0.6232  0.3542  0.6972
              Bcc     1.1533   -83.449   -29.777   -27.836  0.3318  0.9271 -0.1745
 
              Baa    -2.2370   161.869    57.759    53.994  0.7061 -0.1212  0.6977
    12 O(17)  Bbb     0.9703   -70.209   -25.052   -23.419 -0.6001  0.4206  0.6804
              Bcc     1.2667   -91.660   -32.707   -30.575  0.3759  0.8991 -0.2242
 

 ---------------------------------------------------------------------------------

 No NMR shielding tensors so no spin-rotation constants.
 Leave Link  601 at Wed Apr  1 00:23:47 2015, MaxMem= 3758096384 cpu:      10.9
 (Enter /share/apps/g09/l701.exe)
 Compute integral first derivatives.
 ... and contract with generalized density number  0.
 Leave Link  701 at Wed Apr  1 00:23:47 2015, MaxMem= 3758096384 cpu:       5.1
 (Enter /share/apps/g09/l702.exe)
 L702 exits ... SP integral derivatives will be done elsewhere.
 Leave Link  702 at Wed Apr  1 00:23:47 2015, MaxMem= 3758096384 cpu:       0.1
 (Enter /share/apps/g09/l703.exe)
 Compute integral first derivatives, UseDBF=F ICtDFT=           0.
 Integral derivatives from FoFDir, PRISM(SPDF).
 Calling FoFJK, ICntrl=      2127 FMM=F ISym2X=0 I1Cent= 0 IOpClX= 1 NMat=1 NMatS=1 NMatT=0.
 FoFCou: FMM=F IPFlag=           0 FMFlag=      100000 FMFlg1=         800
         NFxFlg=           0 DoJE=F BraDBF=F KetDBF=F FulRan=T
         Omega=  0.000000  0.000000  1.000000  0.000000  0.000000 ICntrl=    2127 IOpCl=  1
         NMat0=    1 NMatS0=    1 NMatT0=    0 NMatD0=    1 NMtDS0=    0 NMtDT0=    0
         I1Cent=           0 NGrid=           0.
 Symmetry not used in FoFCou.
 Leave Link  703 at Wed Apr  1 00:23:49 2015, MaxMem= 3758096384 cpu:      15.1
 (Enter /share/apps/g09/l716.exe)
 Dipole        =-3.46529202D-01 8.09636276D-02-1.50161001D-02
 ***** Axes restored to original set *****
 -------------------------------------------------------------------
 Center     Atomic                   Forces (Hartrees/Bohr)
 Number     Number              X              Y              Z
 -------------------------------------------------------------------
      1        6          -0.000042038    0.000056701   -0.000057827
      2        1           0.000060525   -0.000045535    0.000002341
      3        1           0.000003247   -0.000041946   -0.000004807
      4        1           0.000009404    0.000005983    0.000001113
      5        6          -0.000041679    0.000082003   -0.000017948
      6        1          -0.000031705   -0.000058749   -0.000038461
      7        1          -0.000072488   -0.000082593   -0.000030845
      8        6           0.001513114   -0.000610951   -0.000379944
      9        1           0.000087259   -0.000005056   -0.000066198
     10        1           0.000062766   -0.000060716    0.000031819
     11        8          -0.000166816    0.000528059    0.001915184
     12        8          -0.001381589    0.000232801   -0.001354427
 -------------------------------------------------------------------
 Cartesian Forces:  Max     0.001915184 RMS     0.000543742
 Leave Link  716 at Wed Apr  1 00:23:49 2015, MaxMem= 3758096384 cpu:       0.2
 (Enter /share/apps/g09/l103.exe)

 GradGradGradGradGradGradGradGradGradGradGradGradGradGradGradGradGradGrad
 Berny optimization.
 Internal  Forces:  Max     0.001219065 RMS     0.000176975
 Search for a local minimum.
 Step number   1 out of a maximum of  100
 All quantities printed in internal units (Hartrees-Bohrs-Radians)
 RMS Force = .16151D-03 SwitMx=.10000D-02 MixMth= 2
 Mixed Optimization -- En-DIIS/RFO-DIIS
 Second derivative matrix not updated -- first step.
     Eigenvalues ---    0.00414   0.00899   0.01022   0.01431   0.01891
     Eigenvalues ---    0.01947   0.02243   0.02879   0.03507   0.04320
     Eigenvalues ---    0.05773   0.06981   0.07147   0.08159   0.09436
     Eigenvalues ---    0.10645   0.11814   0.12880   0.14338   0.25158
     Eigenvalues ---    0.26516   0.29241   0.30058   0.31428   0.32341
     Eigenvalues ---    0.32918   0.34050   0.34183   0.678391000.00000
     Eigenvalues --- 1000.000001000.000001000.000001000.000001000.00000
     Eigenvalues --- 1000.000001000.000001000.000001000.000001000.00000
     Eigenvalues --- 1000.000001000.000001000.000001000.000001000.00000
     Eigenvalues --- 1000.000001000.000001000.000001000.000001000.00000
     Eigenvalues --- 1000.000001000.000001000.000001000.000001000.00000
     Eigenvalues --- 1000.000001000.000001000.000001000.000001000.00000
     Eigenvalues --- 1000.000001000.000001000.000001000.000001000.00000
     Eigenvalues --- 1000.000001000.000001000.000001000.000001000.00000
     Eigenvalues --- 1000.000001000.000001000.000001000.000001000.00000
     Eigenvalues --- 1000.000001000.000001000.000001000.000001000.00000
     Eigenvalues --- 1000.000001000.000001000.000001000.000001000.00000
     Eigenvalues --- 1000.000001000.000001000.000001000.000001000.00000
     Eigenvalues --- 1000.000001000.000001000.000001000.000001000.00000
     Eigenvalues --- 1000.000001000.000001000.000001000.000001000.00000
     Eigenvalues --- 1000.00000
 RFO step:  Lambda=-4.78840742D-06 EMin= 4.14306197D-03
 Linear search not attempted -- first point.
 Iteration  1 RMS(Cart)=  0.00041392 RMS(Int)=  0.00000038
 Iteration  2 RMS(Cart)=  0.00000019 RMS(Int)=  0.00000020
 Iteration  1 RMS(Cart)=  0.00000000 RMS(Int)=  0.00000001
 Variable       Old X    -DE/DX   Delta X   Delta X   Delta X     New X
                                 (Linear)    (Quad)   (Total)
    R1        2.06972  -0.00004   0.00000   0.00014   0.00014   2.06987
    R2        2.07023   0.00002   0.00000   0.00006   0.00006   2.07029
    R3        2.07246   0.00000   0.00000   0.00000   0.00000   2.07247
    R4        2.89996  -0.00002   0.00000   0.00001   0.00001   2.89998
    R5        7.09541   0.00003   0.00000  -0.00052  -0.00052   7.09489
    R6        5.73340   0.00006   0.00000  -0.00077  -0.00077   5.73262
    R7        7.01525  -0.00020   0.00000  -0.00216  -0.00216   7.01309
    R8        2.07804  -0.00004   0.00000   0.00007   0.00007   2.07811
    R9        2.09196   0.00003   0.00000   0.00009   0.00009   2.09206
   R10        2.81605   0.00016   0.00000   0.00055   0.00055   2.81660
   R11        6.70323  -0.00009   0.00000   0.00060   0.00060   6.70382
   R12        6.56271   0.00007   0.00000   0.00140   0.00140   6.56411
   R13        2.05143   0.00007   0.00000   0.00010   0.00010   2.05152
   R14        2.05301   0.00011   0.00000   0.00014   0.00014   2.05315
   R15        5.59681  -0.00041   0.00000   0.00000   0.00000   5.59681
   R16        6.95990  -0.00068   0.00000  -0.00103  -0.00103   6.95887
   R17        5.96768  -0.00024   0.00000  -0.00153  -0.00153   5.96615
   R18        5.95509  -0.00023   0.00000  -0.00270  -0.00270   5.95240
   R19        6.66801  -0.00011   0.00000  -0.00338  -0.00338   6.66462
   R20        2.30674  -0.00122   0.00000  -0.00202  -0.00202   2.30472
    A1        1.88807  -0.00004   0.00000  -0.00022  -0.00022   1.88784
    A2        1.88087   0.00008   0.00000  -0.00013  -0.00013   1.88074
    A3        1.93384  -0.00008   0.00000   0.00027   0.00027   1.93412
    A4        1.88112   0.00000   0.00000  -0.00006  -0.00006   1.88107
    A5        1.94091   0.00003   0.00000   0.00024   0.00024   1.94115
    A6        2.37095   0.00008   0.00000  -0.00004  -0.00004   2.37091
    A7        1.93678   0.00001   0.00000  -0.00013  -0.00013   1.93665
    A8        1.96237  -0.00008   0.00000  -0.00013  -0.00013   1.96224
    A9        2.27591  -0.00004   0.00000   0.00013   0.00013   2.27604
   A10        1.91957  -0.00004   0.00000  -0.00051  -0.00051   1.91906
   A11        1.89880  -0.00004   0.00000  -0.00022  -0.00022   1.89859
   A12        1.98494   0.00005   0.00000  -0.00012  -0.00012   1.98482
   A13        1.82862  -0.00004   0.00000  -0.00016  -0.00016   1.82846
   A14        1.91364  -0.00002   0.00000   0.00035   0.00035   1.91398
   A15        1.91169   0.00009   0.00000   0.00065   0.00065   1.91234
   A16        2.84881  -0.00001   0.00000   0.00063   0.00063   2.84944
   A17        2.10992   0.00005   0.00000   0.00005   0.00005   2.10997
   A18        2.10564  -0.00015   0.00000   0.00001   0.00001   2.10565
   A19        1.96553  -0.00003   0.00000  -0.00012  -0.00012   1.96540
   A20        2.04772   0.00006   0.00000   0.00039   0.00039   2.04810
   A21        1.63248  -0.00002   0.00000  -0.00071  -0.00071   1.63178
   A22        0.60562  -0.00002   0.00000  -0.00010  -0.00010   0.60551
   A23        0.73803   0.00004   0.00000   0.00011   0.00011   0.73814
   A24        1.05818   0.00006   0.00000   0.00018   0.00018   1.05836
   A25        0.80685   0.00002   0.00000   0.00012   0.00012   0.80697
   A26        2.10449   0.00032   0.00000   0.00004   0.00004   2.10453
   A27        0.65732  -0.00002   0.00000   0.00005   0.00005   0.65736
   A28        0.78896  -0.00006   0.00000  -0.00009  -0.00009   0.78887
   A29        0.97746   0.00004   0.00000   0.00013   0.00013   0.97759
   A30        1.30284   0.00006   0.00000   0.00020   0.00020   1.30304
   A31        0.99885   0.00005   0.00000   0.00011   0.00011   0.99896
   A32        0.67469   0.00006   0.00000   0.00010   0.00010   0.67479
   A33        0.67442   0.00002   0.00000   0.00014   0.00014   0.67456
   A34        2.32569   0.00036   0.00000   0.00013   0.00013   2.32582
   A35        0.65605   0.00001   0.00000   0.00005   0.00005   0.65610
   A36        0.76961   0.00005   0.00000   0.00011   0.00011   0.76972
   A37        0.96383   0.00002   0.00000   0.00016   0.00016   0.96399
   A38        2.63939   0.00036   0.00000   0.00009   0.00009   2.63949
   A39        0.59688   0.00006   0.00000   0.00033   0.00033   0.59721
   A40        2.08222   0.00027   0.00000   0.00036   0.00036   2.08258
   A41        0.78116   0.00006   0.00000   0.00023   0.00023   0.78139
   A42        0.84205   0.00005   0.00000   0.00017   0.00017   0.84222
    D1        2.79014  -0.00008   0.00000   0.00009   0.00009   2.79023
    D2       -1.46362  -0.00006   0.00000  -0.00016  -0.00016  -1.46379
    D3        0.65837  -0.00004   0.00000  -0.00023  -0.00023   0.65813
    D4        1.08646  -0.00005   0.00000   0.00043   0.00043   1.08689
    D5        3.08008  -0.00015   0.00000  -0.00015  -0.00015   3.07993
    D6       -1.06739  -0.00003   0.00000   0.00045   0.00045  -1.06694
    D7       -1.01413   0.00003   0.00000   0.00037   0.00037  -1.01377
    D8        0.97948  -0.00006   0.00000  -0.00021  -0.00021   0.97927
    D9        3.11520   0.00005   0.00000   0.00039   0.00039   3.11559
   D10       -3.10793   0.00001   0.00000   0.00036   0.00036  -3.10757
   D11       -1.11431  -0.00009   0.00000  -0.00021  -0.00021  -1.11453
   D12        1.02140   0.00003   0.00000   0.00039   0.00039   1.02179
   D13        1.22761  -0.00003   0.00000   0.00056   0.00056   1.22818
   D14        2.29676  -0.00004   0.00000   0.00058   0.00058   2.29734
   D15        2.11060  -0.00004   0.00000   0.00045   0.00045   2.11105
   D16        2.79443   0.00000   0.00000   0.00080   0.00080   2.79523
   D17       -2.27630   0.00018   0.00000   0.00095   0.00095  -2.27535
   D18       -2.36607  -0.00004   0.00000  -0.00017  -0.00017  -2.36623
   D19       -1.29692  -0.00005   0.00000  -0.00014  -0.00014  -1.29707
   D20       -1.48308  -0.00005   0.00000  -0.00027  -0.00027  -1.48335
   D21       -0.79925  -0.00001   0.00000   0.00007   0.00007  -0.79918
   D22        0.41321   0.00017   0.00000   0.00022   0.00022   0.41343
   D23       -0.16207   0.00003   0.00000   0.00020   0.00020  -0.16187
   D24        0.24363   0.00008   0.00000   0.00024   0.00024   0.24387
   D25        2.83538   0.00007   0.00000  -0.00146  -0.00146   2.83392
   D26       -0.52497  -0.00017   0.00000   0.00103   0.00103  -0.52394
   D27        0.93141   0.00009   0.00000  -0.00045  -0.00045   0.93096
   D28        0.67830   0.00010   0.00000  -0.00097  -0.00097   0.67733
   D29       -2.68205  -0.00014   0.00000   0.00152   0.00152  -2.68053
   D30       -1.22567   0.00012   0.00000   0.00003   0.00003  -1.22564
   D31       -1.31920   0.00012   0.00000  -0.00134  -0.00134  -1.32054
   D32        1.60363  -0.00012   0.00000   0.00115   0.00115   1.60479
   D33        3.06001   0.00013   0.00000  -0.00033  -0.00033   3.05968
   D34        2.73064   0.00005   0.00000  -0.00049  -0.00049   2.73015
   D35       -0.02386  -0.00010   0.00000  -0.00087  -0.00087  -0.02473
   D36        0.95650  -0.00005   0.00000  -0.00046  -0.00046   0.95604
   D37        1.44640  -0.00002   0.00000  -0.00025  -0.00025   1.44615
   D38       -0.40813  -0.00001   0.00000   0.00010   0.00010  -0.40803
   D39       -2.60127  -0.00004   0.00000   0.00048   0.00048  -2.60079
         Item               Value     Threshold  Converged?
 Maximum Force            0.001312     0.000450     NO 
 RMS     Force            0.000162     0.000300     YES
 Maximum Displacement     0.001844     0.001800     NO 
 RMS     Displacement     0.000414     0.001200     YES
 Predicted change in Energy=-2.394478D-06
 GradGradGradGradGradGradGradGradGradGradGradGradGradGradGradGradGradGrad

 Leave Link  103 at Wed Apr  1 00:23:50 2015, MaxMem= 3758096384 cpu:       2.9
 (Enter /share/apps/g09/l202.exe)
                          Input orientation:                          
 ---------------------------------------------------------------------
 Center     Atomic      Atomic             Coordinates (Angstroms)
 Number     Number       Type             X           Y           Z
 ---------------------------------------------------------------------
      1          6           0       -1.755388   -1.097180    0.179491
      2          1           0       -0.787360   -1.586989    0.028659
      3          1           0       -2.521161   -1.688573   -0.334392
      4          1           0       -1.978535   -1.120752    1.252992
      5          6           0       -1.724024    0.345327   -0.343184
      6          1           0       -1.533719    0.347993   -1.426280
      7          1           0       -2.733455    0.786367   -0.233032
      8          6           0       -0.723546    1.210444    0.343948
      9          1           0       -0.397004    2.145757   -0.100044
     10          1           0       -0.453489    1.028911    1.380554
     11          8           0        1.792099   -0.089279   -0.524355
     12          8           0        2.659784   -0.243192    0.318777
 ---------------------------------------------------------------------
                    Distance matrix (angstroms):
                    1          2          3          4          5
     1  C    0.000000
     2  H    1.095327   0.000000
     3  H    1.095549   1.774314   0.000000
     4  H    1.096702   1.770668   1.771059   0.000000
     5  C    1.534601   2.179324   2.184549   2.182187   0.000000
     6  H    2.171672   2.533388   2.512939   3.087648   1.099690
     7  H    2.162069   3.080356   2.486096   2.532839   1.107069
     8  C    2.533155   2.815868   3.477911   2.799256   1.490481
     9  H    3.527037   3.755308   4.389653   3.873245   2.249810
    10  H    2.767265   2.963447   3.821128   2.638766   2.247847
    11  O    3.754455   3.033574   4.604133   4.294249   3.547510
    12  O    4.499160   3.711167   5.418297   4.812158   4.472395
                    6          7          8          9         10
     6  H    0.000000
     7  H    1.747964   0.000000
     8  C    2.129298   2.133655   0.000000
     9  H    2.506587   2.706406   1.085619   0.000000
    10  H    3.083644   2.803700   1.086479   1.855453   0.000000
    11  O    3.473577   4.618687   2.961706   3.157150   3.149872
    12  O    4.580413   5.518289   3.682474   3.902107   3.526767
                   11         12
    11  O    0.000000
    12  O    1.219605   0.000000
 Stoichiometry    C3H7O2(2)
 Framework group  C1[X(C3H7O2)]
 Deg. of freedom    30
 Full point group                 C1      NOp   1
 Largest Abelian subgroup         C1      NOp   1
 Largest concise Abelian subgroup C1      NOp   1
                         Standard orientation:                         
 ---------------------------------------------------------------------
 Center     Atomic      Atomic             Coordinates (Angstroms)
 Number     Number       Type             X           Y           Z
 ---------------------------------------------------------------------
      1          6           0       -1.755175   -1.097342    0.179360
      2          1           0       -0.787132   -1.587122    0.028529
      3          1           0       -2.520930   -1.688758   -0.334522
      4          1           0       -1.978321   -1.120920    1.252861
      5          6           0       -1.723853    0.345166   -0.343315
      6          1           0       -1.533549    0.347837   -1.426411
      7          1           0       -2.733298    0.786176   -0.233163
      8          6           0       -0.723401    1.210313    0.343818
      9          1           0       -0.396888    2.145636   -0.100174
     10          1           0       -0.453339    1.028787    1.380423
     11          8           0        1.792282   -0.089335   -0.524486
     12          8           0        2.659972   -0.243223    0.318646
 ---------------------------------------------------------------------
 Rotational constants (GHZ):      8.0772906      1.8158572      1.6252687
 Leave Link  202 at Wed Apr  1 00:23:50 2015, MaxMem= 3758096384 cpu:       0.6
 (Enter /share/apps/g09/l301.exe)
 Standard basis: 6-31G(d) (6D, 7F)
 Ernie: Thresh=  0.10000D-02 Tol=  0.10000D-05 Strict=F.
 There are    89 symmetry adapted basis functions of A   symmetry.
 Integral buffers will be    131072 words long.
 Raffenetti 2 integral format.
 Two-electron integral symmetry is turned on.
    89 basis functions,   168 primitive gaussians,    89 cartesian basis functions
    21 alpha electrons       20 beta electrons
       nuclear repulsion energy       159.0751007699 Hartrees.
 IExCor=  402 DFT=T Ex+Corr=B3LYP ExCW=0 ScaHFX=  0.200000
 ScaDFX=  0.800000  0.720000  1.000000  0.810000 ScalE2=  1.000000  1.000000
 IRadAn=      0 IRanWt=     -1 IRanGd=            0 ICorTp=0
 NAtoms=   12 NActive=   12 NUniq=   12 SFac= 7.50D-01 NAtFMM=   80 NAOKFM=F Big=F
 Leave Link  301 at Wed Apr  1 00:23:50 2015, MaxMem= 3758096384 cpu:       0.4
 (Enter /share/apps/g09/l302.exe)
 NPDir=0 NMtPBC=     1 NCelOv=     1 NCel=       1 NClECP=     1 NCelD=      1
         NCelK=      1 NCelE2=     1 NClLst=     1 CellRange=     0.0.
 One-electron integrals computed using PRISM.
 NBasis=    89 RedAO= T  NBF=    89
 NBsUse=    89 1.00D-06 NBFU=    89
 Precomputing XC quadrature grid using
 IXCGrd= 2 IRadAn=           0 IRanWt=          -1 IRanGd=           0 AccXCQ= 1.00D-10.
 NRdTot=     744 NPtTot=       94340 NUsed=       99717 NTot=       99749
 NSgBfM=    89    89    89    89    89 NAtAll=    12    12.
 Leave Link  302 at Wed Apr  1 00:23:50 2015, MaxMem= 3758096384 cpu:       4.7
 (Enter /share/apps/g09/l303.exe)
 DipDrv:  MaxL=1.
 Leave Link  303 at Wed Apr  1 00:23:51 2015, MaxMem= 3758096384 cpu:       0.9
 (Enter /share/apps/g09/l401.exe)
 Initial guess read from the read-write file.
 B after Tr=     0.000000    0.000000    0.000000
         Rot=    1.000000    0.000000    0.000000    0.000000 Ang=   0.00 deg.
 Guess basis will be translated and rotated to current coordinates.
 Initial guess orbital symmetries:
 Alpha Orbitals:
       Occupied  (A) (A) (A) (A) (A) (A) (A) (A) (A) (A) (A) (A)
                 (A) (A) (A) (A) (A) (A) (A) (A) (A)
       Virtual   (A) (A) (A) (A) (A) (A) (A) (A) (A) (A) (A) (A)
                 (A) (A) (A) (A) (A) (A) (A) (A) (A) (A) (A) (A)
                 (A) (A) (A) (A) (A) (A) (A) (A) (A) (A) (A) (A)
                 (A) (A) (A) (A) (A) (A) (A) (A) (A) (A) (A) (A)
                 (A) (A) (A) (A) (A) (A) (A) (A) (A) (A) (A) (A)
                 (A) (A) (A) (A) (A) (A) (A) (A)
 Beta  Orbitals:
       Occupied  (A) (A) (A) (A) (A) (A) (A) (A) (A) (A) (A) (A)
                 (A) (A) (A) (A) (A) (A) (A) (A)
       Virtual   (A) (A) (A) (A) (A) (A) (A) (A) (A) (A) (A) (A)
                 (A) (A) (A) (A) (A) (A) (A) (A) (A) (A) (A) (A)
                 (A) (A) (A) (A) (A) (A) (A) (A) (A) (A) (A) (A)
                 (A) (A) (A) (A) (A) (A) (A) (A) (A) (A) (A) (A)
                 (A) (A) (A) (A) (A) (A) (A) (A) (A) (A) (A) (A)
                 (A) (A) (A) (A) (A) (A) (A) (A) (A)
 The electronic state of the initial guess is 2-A.
 Initial guess <Sx>= 0.0000 <Sy>= 0.0000 <Sz>= 0.5000 <S**2>= 1.6806 S= 0.8895
 Leave Link  401 at Wed Apr  1 00:23:51 2015, MaxMem= 3758096384 cpu:       1.5
 (Enter /share/apps/g09/l502.exe)
 UHF open shell SCF:
 Requested convergence on RMS density matrix=1.00D-08 within 128 cycles.
 Requested convergence on MAX density matrix=1.00D-06.
 Requested convergence on             energy=1.00D-06.
 No special actions if energy rises.
 Using DIIS extrapolation, IDIIS=  1040.
 Integral symmetry usage will be decided dynamically.
        99596 words used for storage of precomputed grid.
 Keep R1 and R2 ints in memory in canonical form, NReq=17096789.
 IEnd=      143254 IEndB=      143254 NGot=  3758096384 MDV=  3741933723
 LenX=  3741933723 LenY=  3741925361
 Symmetry not used in FoFDir.
 MinBra= 0 MaxBra= 2 Meth= 1.
 IRaf=       0 NMat=   1 IRICut=       1 DoRegI=T DoRafI=F ISym2E= 0 JSym2E=0.

 Cycle   1  Pass 1  IDiag  1:
 E= -268.793942060336    
 DIIS: error= 1.79D-04 at cycle   1 NSaved=   1.
 NSaved= 1 IEnMin= 1 EnMin= -268.793942060336     IErMin= 1 ErrMin= 1.79D-04
 ErrMax= 1.79D-04 EMaxC= 1.00D-01 BMatC= 3.66D-06 BMatP= 3.66D-06
 IDIUse=3 WtCom= 9.98D-01 WtEn= 1.79D-03
 Coeff-Com:  0.100D+01
 Coeff-En:   0.100D+01
 Coeff:      0.100D+01
 Gap=     0.250 Goal=   None    Shift=    0.000
 Gap=     0.100 Goal=   None    Shift=    0.000
 RMSDP=1.42D-05 MaxDP=2.02D-04              OVMax= 6.34D-04

 Cycle   2  Pass 1  IDiag  1:
 E= -268.793943349894     Delta-E=       -0.000001289558 Rises=F Damp=F
 DIIS: error= 2.87D-05 at cycle   2 NSaved=   2.
 NSaved= 2 IEnMin= 2 EnMin= -268.793943349894     IErMin= 2 ErrMin= 2.87D-05
 ErrMax= 2.87D-05 EMaxC= 1.00D-01 BMatC= 1.03D-07 BMatP= 3.66D-06
 IDIUse=1 WtCom= 1.00D+00 WtEn= 0.00D+00
 Coeff-Com:  0.115D-01 0.989D+00
 Coeff:      0.115D-01 0.989D+00
 Gap=     0.250 Goal=   None    Shift=    0.000
 Gap=     0.100 Goal=   None    Shift=    0.000
 RMSDP=4.78D-06 MaxDP=1.01D-04 DE=-1.29D-06 OVMax= 3.41D-04

 Cycle   3  Pass 1  IDiag  1:
 E= -268.793943373463     Delta-E=       -0.000000023570 Rises=F Damp=F
 DIIS: error= 1.61D-05 at cycle   3 NSaved=   3.
 NSaved= 3 IEnMin= 3 EnMin= -268.793943373463     IErMin= 3 ErrMin= 1.61D-05
 ErrMax= 1.61D-05 EMaxC= 1.00D-01 BMatC= 8.15D-08 BMatP= 1.03D-07
 IDIUse=1 WtCom= 1.00D+00 WtEn= 0.00D+00
 Coeff-Com: -0.317D-01 0.468D+00 0.563D+00
 Coeff:     -0.317D-01 0.468D+00 0.563D+00
 Gap=     0.250 Goal=   None    Shift=    0.000
 Gap=     0.100 Goal=   None    Shift=    0.000
 RMSDP=1.64D-06 MaxDP=3.50D-05 DE=-2.36D-08 OVMax= 8.67D-05

 Cycle   4  Pass 1  IDiag  1:
 E= -268.793943388827     Delta-E=       -0.000000015363 Rises=F Damp=F
 DIIS: error= 1.04D-05 at cycle   4 NSaved=   4.
 NSaved= 4 IEnMin= 4 EnMin= -268.793943388827     IErMin= 4 ErrMin= 1.04D-05
 ErrMax= 1.04D-05 EMaxC= 1.00D-01 BMatC= 1.38D-08 BMatP= 8.15D-08
 IDIUse=1 WtCom= 1.00D+00 WtEn= 0.00D+00
 Coeff-Com: -0.187D-01 0.206D+00 0.329D+00 0.484D+00
 Coeff:     -0.187D-01 0.206D+00 0.329D+00 0.484D+00
 Gap=     0.250 Goal=   None    Shift=    0.000
 Gap=     0.100 Goal=   None    Shift=    0.000
 RMSDP=6.00D-07 MaxDP=1.96D-05 DE=-1.54D-08 OVMax= 3.19D-05

 Cycle   5  Pass 1  IDiag  1:
 E= -268.793943390692     Delta-E=       -0.000000001865 Rises=F Damp=F
 DIIS: error= 6.83D-06 at cycle   5 NSaved=   5.
[...]
     Eigenvalues --- 1000.000001000.000001000.000001000.000001000.00000
     Eigenvalues --- 1000.000001000.000001000.000001000.000001000.00000
     Eigenvalues --- 1000.000001000.000001000.000001000.000001000.00000
     Eigenvalues --- 1000.000001000.000001000.000001000.000001000.00000
     Eigenvalues --- 1000.000001000.000001000.000001000.000001000.00000
     Eigenvalues --- 1000.000001000.000001000.000001000.000001000.00000
     Eigenvalues --- 1000.000001000.000001000.000001000.000001000.00000
     Eigenvalues --- 1000.000001000.000001000.000001000.000001000.00000
     Eigenvalues --- 1000.00000
 Angle between quadratic step and forces=  85.64 degrees.
 Linear search not attempted -- first point.
 Iteration  1 RMS(Cart)=  0.01834132 RMS(Int)=  0.00084471
 Iteration  2 RMS(Cart)=  0.00037171 RMS(Int)=  0.00033262
 Iteration  3 RMS(Cart)=  0.00000100 RMS(Int)=  0.00033261
 Iteration  1 RMS(Cart)=  0.00000309 RMS(Int)=  0.00000941
 Iteration  2 RMS(Cart)=  0.00000214 RMS(Int)=  0.00001036
 Iteration  3 RMS(Cart)=  0.00000147 RMS(Int)=  0.00001194
 Iteration  4 RMS(Cart)=  0.00000102 RMS(Int)=  0.00001331
 Iteration  5 RMS(Cart)=  0.00000070 RMS(Int)=  0.00001436
 Variable       Old X    -DE/DX   Delta X   Delta X   Delta X     New X
                                 (Linear)    (Quad)   (Total)
    R1        2.06987   0.00002   0.00000  -0.00005   0.00013   2.07000
    R2        2.07029   0.00000   0.00000   0.00004   0.00004   2.07033
    R3        2.07247   0.00001   0.00000   0.00005   0.00005   2.07252
    R4        2.89998   0.00001   0.00000   0.00054   0.00062   2.90059
    R5        7.09489  -0.00005   0.00000  -0.08231  -0.08235   7.01254
    R6        5.73262  -0.00003   0.00000  -0.10952  -0.10923   5.62339
    R7        7.01309   0.00003   0.00000  -0.12023  -0.12034   6.89275
    R8        2.07811  -0.00004   0.00000  -0.00029  -0.00019   2.07792
    R9        2.09206  -0.00001   0.00000  -0.00001  -0.00001   2.09205
   R10        2.81660   0.00010   0.00000   0.00002   0.00011   2.81671
   R11        6.70382  -0.00019   0.00000  -0.01356  -0.01378   6.69004
   R12        6.56411  -0.00005   0.00000   0.02764   0.02707   6.59118
   R13        2.05152   0.00007   0.00000  -0.00008   0.00002   2.05154
   R14        2.05315   0.00006   0.00000  -0.00002  -0.00007   2.05308
   R15        5.59681  -0.00051   0.00000   0.00000   0.00002   5.59683
   R16        6.95887  -0.00034   0.00000   0.00023   0.00018   6.95904
   R17        5.96615  -0.00033   0.00000   0.01661   0.01625   5.98240
   R18        5.95240  -0.00027   0.00000  -0.01657  -0.01626   5.93614
   R19        6.66462  -0.00005   0.00000  -0.02097  -0.02063   6.64399
   R20        2.30472  -0.00015   0.00000  -0.00045  -0.00044   2.30428
    A1        1.88784   0.00001   0.00000   0.00036   0.00060   1.88844
    A2        1.88074   0.00000   0.00000  -0.00012  -0.00042   1.88032
    A3        1.93412  -0.00005   0.00000  -0.00028  -0.00027   1.93385
    A4        1.88107  -0.00001   0.00000   0.00004  -0.00002   1.88104
    A5        1.94115   0.00001   0.00000   0.00001  -0.00021   1.94094
    A6        2.37091   0.00005   0.00000   0.00730   0.00682   2.37773
    A7        1.93665   0.00004   0.00000   0.00000   0.00033   1.93699
    A8        1.96224  -0.00004   0.00000  -0.01670  -0.01646   1.94579
    A9        2.27604  -0.00001   0.00000   0.01260   0.01227   2.28831
   A10        1.91906   0.00002   0.00000  -0.00001   0.00009   1.91915
   A11        1.89859  -0.00003   0.00000  -0.00095  -0.00056   1.89803
   A12        1.98482  -0.00003   0.00000  -0.00069  -0.00071   1.98411
   A13        1.82846  -0.00004   0.00000   0.00069  -0.00029   1.82817
   A14        1.91398  -0.00001   0.00000   0.00028   0.00003   1.91401
   A15        1.91234   0.00008   0.00000   0.00079   0.00148   1.91382
   A16        2.84944  -0.00003   0.00000   0.01728   0.01652   2.86596
   A17        2.10997  -0.00001   0.00000   0.00134   0.00136   2.11133
   A18        2.10565  -0.00009   0.00000  -0.00043  -0.00038   2.10528
   A19        1.96540   0.00007   0.00000  -0.01122  -0.01145   1.95395
   A20        2.04810   0.00005   0.00000   0.00034   0.00027   2.04838
   A21        1.63178   0.00005   0.00000   0.01483   0.01473   1.64651
   A22        0.60551   0.00001   0.00000   0.00455   0.00442   0.60993
   A23        0.73814   0.00002   0.00000   0.00899   0.00895   0.74709
   A24        1.05836   0.00005   0.00000   0.00726   0.00722   1.06558
   A25        0.80697   0.00001   0.00000   0.00973   0.00979   0.81676
   A26        2.10453   0.00011   0.00000  -0.01295  -0.01322   2.09131
   A27        0.65736   0.00001   0.00000   0.00325   0.00315   0.66052
   A28        0.78887   0.00000   0.00000   0.00178   0.00165   0.79051
   A29        0.97759   0.00003   0.00000   0.01058   0.01043   0.98802
   A30        1.30304   0.00006   0.00000   0.00767   0.00751   1.31054
   A31        0.99896   0.00002   0.00000   0.01488   0.01480   1.01377
   A32        0.67479   0.00005   0.00000   0.00088   0.00093   0.67572
   A33        0.67456   0.00003   0.00000   0.00151   0.00154   0.67610
   A34        2.32582   0.00016   0.00000  -0.00761  -0.00786   2.31796
   A35        0.65610   0.00002   0.00000  -0.00259  -0.00258   0.65351
   A36        0.76972   0.00004   0.00000  -0.00467  -0.00461   0.76511
   A37        0.96399   0.00003   0.00000  -0.00073  -0.00076   0.96322
   A38        2.63949   0.00016   0.00000  -0.00767  -0.00796   2.63152
   A39        0.59721   0.00006   0.00000   0.00003   0.00000   0.59721
   A40        2.08258   0.00013   0.00000   0.00812   0.00818   2.09076
   A41        0.78139   0.00001   0.00000   0.00713   0.00698   0.78837
   A42        0.84222  -0.00001   0.00000   0.01308   0.01301   0.85523
    D1        2.79023   0.00000   0.00000   0.04094   0.04106   2.83129
    D2       -1.46379  -0.00001   0.00000   0.04111   0.04113  -1.42266
    D3        0.65813   0.00002   0.00000   0.04086   0.04110   0.69924
    D4        1.08689   0.00002   0.00000  -0.00091  -0.00061   1.08628
    D5        3.07993  -0.00003   0.00000  -0.00062  -0.00122   3.07871
    D6       -1.06694   0.00004   0.00000  -0.00078  -0.00020  -1.06714
    D7       -1.01377   0.00004   0.00000  -0.00119  -0.00104  -1.01481
    D8        0.97927  -0.00002   0.00000  -0.00090  -0.00165   0.97763
    D9        3.11559   0.00005   0.00000  -0.00106  -0.00063   3.11496
   D10       -3.10757   0.00001   0.00000  -0.00125  -0.00109  -3.10866
   D11       -1.11453  -0.00004   0.00000  -0.00096  -0.00170  -1.11622
   D12        1.02179   0.00003   0.00000  -0.00112  -0.00069   1.02111
   D13        1.22818  -0.00004   0.00000   0.02430   0.02416   1.25233
   D14        2.29734  -0.00003   0.00000   0.00809   0.00823   2.30557
   D15        2.11105  -0.00004   0.00000   0.00767   0.00773   2.11879
   D16        2.79523   0.00001   0.00000   0.00448   0.00459   2.79983
   D17       -2.27535   0.00010   0.00000   0.02589   0.02589  -2.24946
   D18       -2.36623  -0.00004   0.00000  -0.00670  -0.00676  -2.37300
   D19       -1.29707  -0.00002   0.00000  -0.02290  -0.02269  -1.31976
   D20       -1.48335  -0.00003   0.00000  -0.02332  -0.02319  -1.50654
   D21       -0.79918   0.00001   0.00000  -0.02651  -0.02633  -0.82550
   D22        0.41343   0.00011   0.00000  -0.00511  -0.00503   0.40840
   D23       -0.16187  -0.00002   0.00000  -0.03817  -0.03832  -0.20019
   D24        0.24387   0.00002   0.00000  -0.04378  -0.04395   0.19992
   D25        2.83392   0.00013   0.00000  -0.02611  -0.02622   2.80770
   D26       -0.52394  -0.00015   0.00000  -0.01919  -0.01917  -0.54310
   D27        0.93096   0.00001   0.00000  -0.03803  -0.03780   0.89315
   D28        0.67733   0.00013   0.00000  -0.02581  -0.02585   0.65148
   D29       -2.68053  -0.00016   0.00000  -0.01890  -0.01880  -2.69933
   D30       -1.22564   0.00001   0.00000  -0.03773  -0.03743  -1.26307
   D31       -1.32054   0.00014   0.00000  -0.02723  -0.02634  -1.34688
   D32        1.60479  -0.00015   0.00000  -0.02031  -0.01928   1.58550
   D33        3.05968   0.00002   0.00000  -0.03915  -0.03792   3.02176
   D34        2.73015  -0.00002   0.00000  -0.06793  -0.06846   2.66169
   D35       -0.02473  -0.00006   0.00000  -0.09245  -0.09289  -0.11762
   D36        0.95604   0.00000   0.00000  -0.09400  -0.09453   0.86151
   D37        1.44615   0.00003   0.00000  -0.06559  -0.06581   1.38034
   D38       -0.40803   0.00000   0.00000   0.02578   0.02575  -0.38229
   D39       -2.60079  -0.00004   0.00000   0.02019   0.02037  -2.58042
         Item               Value     Threshold  Converged?
 Maximum Force            0.000262     0.000450     YES
 RMS     Force            0.000034     0.000300     YES
 Maximum Displacement     0.073556     0.001800     NO 
 RMS     Displacement     0.018594     0.001200     NO 
 Predicted change in Energy=-3.891762D-06
 GradGradGradGradGradGradGradGradGradGradGradGradGradGradGradGradGradGrad

 Leave Link  103 at Wed Apr  1 00:24:42 2015, MaxMem= 3758096384 cpu:       4.3
 (Enter /share/apps/g09/l9999.exe)
 1\1\GINC-COMPUTE-0-14\Freq\UB3LYP\6-31G(d)\C3H7O2(2)\HETANJIN\01-Apr-2
 015\0\\#P Geom=AllCheck Guess=TCheck SCRF=Check GenChk UB3LYP/6-31G(d)
  Freq\\C3H7O2_62_b3631gd using cbs-qb3 to calculate energy\\0,2\C,-1.7
 553882216,-1.0971799428,0.1794905655\H,-0.7873600433,-1.5869892446,0.0
 286594565\H,-2.5211606859,-1.6885732962,-0.3343917814\H,-1.9785347619,
 -1.1207516586,1.2529915493\C,-1.7240236427,0.3453271917,-0.3431844459\
 H,-1.5337188262,0.3479926852,-1.426280039\H,-2.7334553348,0.7863672291
 ,-0.2330324942\C,-0.7235458553,1.2104444494,0.3439482514\H,-0.39700406
 64,2.1457571542,-0.1000438386\H,-0.4534892702,1.0289106282,1.380553706
 9\O,1.7920991098,-0.0892787386,-0.5243554771\O,2.6597835986,-0.2431924
 571,0.3187765466\\Version=EM64L-G09RevA.01\State=2-A\HF=-268.7939434\S
 2=1.681063\S2-1=0.\S2A=0.779518\RMSD=3.434e-09\RMSF=3.954e-04\ZeroPoin
 t=0.0933611\Thermal=0.1013343\Dipole=-0.3437646,0.0800377,-0.0154042\D
 ipoleDeriv=0.1012174,-0.0147617,0.0060712,0.0328738,0.0479528,0.018258
 2,-0.0636429,-0.0035405,0.1218247,-0.0832436,0.1063347,0.0229139,0.053
 1463,-0.0041912,0.0093772,0.031976,0.003724,0.046023,-0.0574473,-0.105
 1139,-0.0718906,-0.1088584,-0.0509393,-0.0310889,-0.0746783,-0.0507846
 ,0.0104563,0.0536488,0.000591,0.0334022,0.0092961,0.0226764,-0.0092737
 ,0.0531955,0.0344541,-0.1587316,0.0204381,-0.0393418,-0.0465016,0.0440
 163,0.1082235,0.0282959,-0.039857,0.0146365,0.0969952,0.046369,-0.0169
 866,0.0327358,-0.0810452,0.0042125,0.0035415,-0.0021105,0.0231603,-0.1
 657183,-0.2054627,0.0800992,-0.0082666,-0.0167367,-0.0249629,-0.006252
 4,-0.0218862,-0.0018403,0.0563541,-0.172575,0.1968802,0.1111597,0.3149
 767,-0.0552065,-0.1051915,0.2752714,-0.1089,0.0950539,0.0645517,-0.082
 4943,-0.0222529,-0.0882555,-0.0831548,0.0411297,-0.0245282,0.0510583,0
 .0175893,0.0613217,-0.0455298,-0.0416832,-0.0382584,0.0370975,0.043073
 2,-0.0510006,0.0112746,-0.0847924,0.8920687,-0.3085556,-0.0933258,-0.2
 451299,0.065891,0.0217383,0.5864398,-0.1974367,-0.084559,-0.7208869,0.
 2288786,0.077638,0.1239748,-0.067599,-0.0136076,-0.669179,0.2241944,0.
 0495049\Polar=72.031979,-7.5750871,40.8377553,3.0405301,-0.1638459,38.
 2964674\PG=C01 [X(C3H7O2)]\NImag=1\\0.58184135,0.00043864,0.48742431,0
 .00387081,0.03584455,0.56352919,-0.25939392,0.10289622,0.03392442,0.27
 904528,0.10143177,-0.09878097,-0.01762560,-0.11292196,0.10823705,0.034
 13311,-0.01797191,-0.05643657,-0.03754436,0.01662986,0.05577259,-0.180
 52645,-0.09841896,-0.08838998,-0.01921949,-0.01610077,-0.01473286,0.19
 188222,-0.09726414,-0.12302240,-0.06654841,0.00987263,0.00886575,0.008
 43432,0.10828898,0.13408915,-0.08839205,-0.06757543,-0.10976593,0.0042
 7311,0.00404333,0.00233260,0.09769058,0.07189050,0.11490795,-0.0617278
 6,-0.00042538,0.05265845,-0.00495720,-0.00083180,0.03009124,0.00582854
 ,0.00120992,-0.02399557,0.06040974,-0.00033486,-0.04866849,0.00033834,
 0.00157453,-0.00033120,-0.01463156,0.00518191,-0.00000677,-0.01716579,
 0.00044083,0.05297276,0.05250722,0.00138861,-0.29928938,0.00063754,-0.
 00049501,-0.00339273,0.00348099,-0.00002963,-0.01439038,-0.05797093,-0
 .00369126,0.32544067,-0.07509835,0.00246894,-0.00016838,0.00233982,0.0
 2787014,-0.01119439,0.00063805,-0.02207969,0.00957903,-0.00070875,-0.0
 0743463,0.00222976,0.48698351,-0.00011598,-0.17694481,0.03556069,-0.00
 092787,-0.01539230,0.00598070,0.00166282,-0.01614262,0.00770026,0.0001
 0498,-0.00104666,0.00062086,-0.00345770,0.46885019,-0.00058996,0.03649
 279,-0.09763371,-0.00068604,-0.00507177,0.00144005,0.00113549,-0.01667
 156,0.00608285,-0.00059461,0.03364888,-0.01102564,-0.00875775,0.001400
 92,0.55475391,-0.00073208,-0.00024201,-0.00008244,0.00019406,-0.000226
 25,-0.00067776,-0.00012719,-0.00013371,0.00032982,0.00091491,-0.000270
 41,-0.00046019,-0.05258076,-0.00030105,0.04617885,0.06079985,-0.006794
 84,-0.00031546,0.03273430,0.00037498,0.00134957,-0.00058215,-0.0002395
 0,0.00121259,-0.00058893,0.00002444,-0.00644627,0.00245768,-0.00021034
 ,-0.05112499,-0.00281328,0.00242706,0.05450497,0.00205624,0.00062613,-
 0.00971113,-0.00055686,-0.00005967,0.00037313,0.00032032,0.00023614,0.
 00058305,-0.00015096,0.00221063,0.00089902,0.04724274,0.00017261,-0.28
 998868,-0.04860207,0.00088260,0.31793704,0.00103676,-0.00018326,0.0003
 2487,0.00131567,-0.00048701,-0.00007256,0.00059074,0.00049801,0.000033
 85,0.00020611,0.00007355,-0.00051996,-0.23518857,0.09183744,0.02929429
 ,-0.00713041,0.00366581,0.00270977,0.26410795,0.03014841,-0.01619026,-
 0.00320910,-0.00061907,-0.00625539,0.00299810,-0.00017791,0.00120368,-
 0.00089772,-0.00036667,0.00152017,0.00011373,0.07779488,-0.07953886,-0
 .01070225,0.00110791,0.00003828,-0.00046664,-0.09229541,0.09289862,-0.
 01085038,0.00658206,0.00121473,-0.00020385,0.00240659,0.00002804,0.000
 34113,-0.00069636,0.00021430,-0.00058896,-0.00055624,0.00035966,0.0215
 7879,-0.00880052,-0.04762019,0.03106159,-0.01313932,-0.00520623,-0.025
 68145,0.01139216,0.05117111,-0.00386329,-0.00708401,0.00080845,0.00085
 689,0.00121267,-0.00000691,0.00070706,0.00039102,-0.00022846,0.0004028
 9,0.00106632,-0.00071013,-0.12743011,-0.07545121,-0.05714568,0.0003090
 6,0.00176161,-0.00210356,-0.02450568,-0.01725863,-0.01650724,0.2532076
 0,-0.02519043,-0.02468941,-0.01353907,-0.00054325,0.00222959,-0.000800
 27,-0.00027933,-0.00527194,0.00192644,0.00001698,0.00174415,-0.0009421
 2,-0.07073677,-0.12568556,-0.02899021,-0.00010472,0.00193506,-0.000794
 72,-0.00171215,0.00733599,0.00373537,0.19602993,0.45886571,0.00912278,
 0.00429082,0.00847797,-0.00010483,0.00062802,0.00015183,0.00016568,0.0
 0443417,-0.00081109,0.00107350,0.00094401,0.00063922,-0.05674260,-0.03
 303103,-0.11644603,-0.02632086,-0.01816445,-0.01567203,-0.00525674,0.0
 0128335,0.00046508,0.13435815,-0.13061556,0.54268865,-0.00268599,-0.00
 012171,-0.00333620,0.00015728,-0.00012983,-0.00005444,0.00035263,-0.00
 124735,0.00049997,-0.00011840,0.00017484,0.00008680,-0.00018193,-0.017
 38592,0.01178226,0.00064573,0.00071951,-0.00071850,0.00011514,0.001199
 33,-0.00003250,-0.05423601,-0.08889789,0.02108423,0.05109428,-0.003159
 54,-0.00069747,-0.00206049,0.00009611,0.00018457,-0.00001514,-0.000045
 90,-0.00098972,0.00039940,0.00008398,0.00017272,0.00009092,-0.00018019
 ,-0.00813408,0.00732846,0.00048561,0.00045594,0.00007270,-0.00065539,-
 0.00052327,0.00010418,-0.09394621,-0.26243048,0.11456723,0.09909378,0.
 27201873,-0.00231266,-0.00115071,-0.00109698,0.00007908,0.00004724,-0.
 00012133,-0.00018446,-0.00093893,0.00051871,-0.00024501,-0.00027259,0.
 00035495,-0.00360229,-0.01293067,0.00804371,0.00096777,0.00022661,0.00
 116998,-0.00059225,-0.00016146,0.00017280,0.02325416,0.11173392,-0.102
 33017,-0.02583492,-0.11975660,0.09970072,0.00097750,0.00094907,0.00012
 548,-0.00001217,-0.00005119,0.00011836,-0.00009205,0.00027905,0.000202
 18,-0.00017404,-0.00046394,0.00071637,0.00128971,0.00430582,-0.0206703
 1,-0.00246563,-0.00198190,-0.00042345,-0.00082452,0.00016479,0.0007610
 5,-0.04578285,-0.00733546,-0.07611021,0.00513889,-0.00180116,0.0082504
 7,0.04202889,0.00089959,0.00191089,-0.00136359,0.00019371,-0.00026928,
 -0.00004994,0.00019718,0.00011173,0.00024993,-0.00023852,0.00006734,0.
 00045884,-0.00370887,0.00496807,-0.01469829,-0.00267913,-0.00147871,-0
 .00280492,-0.00056321,-0.00030383,-0.00093881,-0.00632593,-0.05392222,
 0.05518960,0.00620112,-0.00007664,0.02348759,0.00589140,0.04906412,0.0
 0052479,0.00129655,0.00075360,0.00008243,-0.00045283,-0.00005710,0.000
 15291,-0.00004261,0.00032858,-0.00027711,-0.00080777,0.00038366,0.0003
 9714,0.00302364,-0.00761156,-0.00237073,-0.00095475,-0.00044477,-0.000
 07973,-0.00013248,-0.00077809,-0.08142802,0.05794352,-0.31589497,-0.00
 339052,-0.00077313,-0.00639969,0.08652918,-0.05916724,0.32961595,0.000
 58266,-0.00125275,0.00111956,-0.00044202,0.00084295,0.00001051,-0.0000
 2271,0.00075657,-0.00005610,-0.00013036,-0.00003815,-0.00012820,0.0029
 4566,-0.00192357,-0.00007163,0.00016457,0.00115504,0.00051013,0.001151
 26,0.00184326,0.00071539,0.00168302,-0.00443095,-0.00286840,0.00014717
 ,-0.00043843,0.00022908,0.00010215,0.00014538,-0.00091160,0.38424946,-
 0.00009710,0.00014657,-0.00029229,0.00004802,0.00004046,0.00003147,-0.
 00008308,-0.00014342,0.00002850,-0.00001863,0.00003211,0.00005426,-0.0
 0106865,0.00058621,0.00014083,-0.00005981,-0.00027190,-0.00009233,-0.0
 0036561,-0.00048658,-0.00020465,-0.00069265,0.00030432,0.00022445,0.00
 028125,0.00012744,-0.00028447,0.00013425,-0.00014147,0.00017376,-0.066
 15616,0.01274223,0.00028032,-0.00068251,0.00078846,-0.00001233,0.00054
 875,-0.00011037,0.00004483,0.00048376,-0.00006218,-0.00005155,-0.00007
 636,-0.00010353,0.00163291,-0.00103153,-0.00006106,-0.00006150,0.00089
 084,0.00051308,0.00054980,0.00112223,0.00056262,0.00082865,-0.00304572
 ,-0.00506140,0.00012672,-0.00027760,0.00005291,0.00125116,-0.00068036,
 -0.00071227,0.37849619,-0.06404518,0.38099116,-0.00041033,0.00097520,-
 0.00085503,0.00011580,-0.00060871,-0.00006993,-0.00001135,-0.00057130,
 0.00006365,0.00005443,0.00003002,0.00013075,-0.00300826,0.00165225,0.0
 0012510,0.00000789,-0.00090188,-0.00028381,-0.00087446,-0.00154087,-0.
 00059357,-0.00134857,0.00318405,0.00159929,-0.00042880,0.00046734,-0.0
 0000897,-0.00018587,-0.00001272,0.00077125,-0.39043086,0.06807816,-0.3
 8308522,0.39652039,0.00003849,-0.00017249,0.00016068,-0.00004405,0.000
 12215,-0.00002347,0.00001457,0.00009398,-0.00001050,-0.00000014,-0.000
 00985,-0.00002688,0.00074290,-0.00039459,-0.00006452,-0.00000348,0.000
 14092,0.00001748,0.00018724,0.00030144,0.00011554,0.00029708,-0.000415
 20,0.00024939,0.00011286,-0.00010774,0.00000008,-0.00009073,0.00007001
 ,-0.00010665,0.06949681,-0.01293596,0.06679367,-0.07075154,0.01330732,
 -0.00035022,0.00085905,-0.00083025,0.00011169,-0.00059890,0.00001987,-
 0.00002464,-0.00055138,0.00006155,0.00005150,0.00005970,0.00012449,-0.
 00219496,0.00133406,0.00006636,0.00003755,-0.00094915,-0.00045247,-0.0
 0070988,-0.00133990,-0.00058386,-0.00111942,0.00338844,0.00379294,-0.0
 0021290,0.00032007,-0.00006563,-0.00075028,0.00031720,0.00081665,-0.37
 704493,0.06426564,-0.37679741,0.38220648,-0.06710482,0.37384775\\0.000
 01382,-0.00000325,0.00000912,-0.00003124,0.00000069,0.00000078,-0.0000
 0363,0.00000800,0.00000400,-0.00000603,0.00000561,-0.00000687,-0.00000
 079,-0.00007797,0.00001861,-0.00000011,0.00000328,0.00001173,0.0000099
 8,0.00005864,0.00000417,-0.00141210,0.00069282,0.00046115,-0.00006435,
 0.00003230,0.00002692,-0.00003542,0.00003112,0.00002206,0.00125962,-0.
 00071372,-0.00082344,0.00027024,-0.00003751,0.00027177\\\@


 MARY HAD A LITTLE LAMB
      HIS FEET WERE BLACK AS SOOT,
           AND EVERYWHERE THAT MARY WENT
                HIS SOOTY FOOT HE PUT.

                    -- NONAME
 Job cpu time:  0 days  0 hours  7 minutes  1.0 seconds.
 File lengths (MBytes):  RWF=     29 Int=      0 D2E=      0 Chk=      3 Scr=      1
 Normal termination of Gaussian 09 at Wed Apr  1 00:24:42 2015.
