 Entering Gaussian System, Link 0=/share/apps/g09/g09
 Input=O2_31_b3631gd.gjf
 Output=O2_31_b3631gd.log
 Initial command:
 /share/apps/g09/l1.exe /state/partition1/Gau-11083.inp -scrdir=/state/partition1/
 Entering Link 1 = /share/apps/g09/l1.exe PID=     11084.
  
 Copyright (c) 1988,1990,1992,1993,1995,1998,2003,2009, Gaussian, Inc.
                  All Rights Reserved.
  
 This is part of the Gaussian(R) 09 program.  It is based on
 the Gaussian(R) 03 system (copyright 2003, Gaussian, Inc.),
 the Gaussian(R) 98 system (copyright 1998, Gaussian, Inc.),
 the Gaussian(R) 94 system (copyright 1995, Gaussian, Inc.),
 the Gaussian 92(TM) system (copyright 1992, Gaussian, Inc.),
 the Gaussian 90(TM) system (copyright 1990, Gaussian, Inc.),
 the Gaussian 88(TM) system (copyright 1988, Gaussian, Inc.),
 the Gaussian 86(TM) system (copyright 1986, Carnegie Mellon
 University), and the Gaussian 82(TM) system (copyright 1983,
 Carnegie Mellon University). Gaussian is a federally registered
 trademark of Gaussian, Inc.
  
 This software contains proprietary and confidential information,
 including trade secrets, belonging to Gaussian, Inc.
  
 This software is provided under written license and may be
 used, copied, transmitted, or stored only in accord with that
 written license.
  
 The following legend is applicable only to US Government
 contracts under FAR:
  
                    RESTRICTED RIGHTS LEGEND
  
 Use, reproduction and disclosure by the US Government is
 subject to restrictions as set forth in subparagraphs (a)
 and (c) of the Commercial Computer Software - Restricted
 Rights clause in FAR 52.227-19.
  
 Gaussian, Inc.
 340 Quinnipiac St., Bldg. 40, Wallingford CT 06492
  
  
 ---------------------------------------------------------------
 Warning -- This program may not be used in any manner that
 competes with the business of Gaussian, Inc. or will provide
 assistance to any competitor of Gaussian, Inc.  The licensee
 of this program is prohibited from giving any competitor of
 Gaussian, Inc. access to this program.  By using this program,
 the user acknowledges that Gaussian, Inc. is engaged in the
 business of creating and licensing software in the field of
 computational chemistry and represents and warrants to the
 licensee that it is not a competitor of Gaussian, Inc. and that
 it will not use this program in any manner prohibited above.
 ---------------------------------------------------------------
  

 Cite this work as:
 Gaussian 09, Revision A.01,
 M. J. Frisch, G. W. Trucks, H. B. Schlegel, G. E. Scuseria, 
 M. A. Robb, J. R. Cheeseman, G. Scalmani, V. Barone, B. Mennucci, 
 G. A. Petersson, H. Nakatsuji, M. Caricato, X. Li, H. P. Hratchian, 
 A. F. Izmaylov, J. Bloino, G. Zheng, J. L. Sonnenberg, M. Hada, 
 M. Ehara, K. Toyota, R. Fukuda, J. Hasegawa, M. Ishida, T. Nakajima, 
 Y. Honda, O. Kitao, H. Nakai, T. Vreven, J. A. Montgomery, Jr., 
 J. E. Peralta, F. Ogliaro, M. Bearpark, J. J. Heyd, E. Brothers, 
 K. N. Kudin, V. N. Staroverov, R. Kobayashi, J. Normand, 
 K. Raghavachari, A. Rendell, J. C. Burant, S. S. Iyengar, J. Tomasi, 
 M. Cossi, N. Rega, J. M. Millam, M. Klene, J. E. Knox, J. B. Cross, 
 V. Bakken, C. Adamo, J. Jaramillo, R. Gomperts, R. E. Stratmann, 
 O. Yazyev, A. J. Austin, R. Cammi, C. Pomelli, J. W. Ochterski, 
 R. L. Martin, K. Morokuma, V. G. Zakrzewski, G. A. Voth, 
 P. Salvador, J. J. Dannenberg, S. Dapprich, A. D. Daniels, 
 O. Farkas, J. B. Foresman, J. V. Ortiz, J. Cioslowski, 
 and D. J. Fox, Gaussian, Inc., Wallingford CT, 2009.
 
 ******************************************
 Gaussian 09:  EM64L-G09RevA.01  8-May-2009
                 1-Apr-2015 
 ******************************************
 %mem=28GB
 %nprocshared=12
 Will use up to   12 processors via shared memory.
 %chk=O2_31_b3631gd.chk
 ---------------------------
 #p opt freq ub3lyp/6-31g(d)
 ---------------------------
 1/14=-1,18=20,19=15,26=3,38=1/1,3;
 2/9=110,12=2,17=6,18=5,40=1/2;
 3/5=1,6=6,7=1,11=2,16=1,25=1,30=1,71=1,74=-5,116=2/1,2,3;
 4//1;
 5/5=2,38=5/2;
 6/7=2,8=2,9=2,10=2,28=1/1;
 7//1,2,3,16;
 1/14=-1,18=20,19=15/3(2);
 2/9=110/2;
 99//99;
 2/9=110/2;
 3/5=1,6=6,7=1,11=2,16=1,25=1,30=1,71=1,74=-5,116=2/1,2,3;
 4/5=5,16=3/1;
 5/5=2,38=5/2;
 7//1,2,3,16;
 1/14=-1,18=20,19=15/3(-5);
 2/9=110/2;
 6/7=2,8=2,9=2,10=2,19=2,28=1/1;
 99/9=1/99;
 Leave Link    1 at Wed Apr  1 00:08:49 2015, MaxMem= 3758096384 cpu:       0.4
 (Enter /share/apps/g09/l101.exe)
 ------------------------------------------------------
 RO2_3_2_opt_ub3631gd using cbs-qb3 to calculate energy
 ------------------------------------------------------
 Symbolic Z-matrix:
 Charge =  0 Multiplicity = 3
 O                    -1.3898    0.19737   0. 
 O                    -2.5514    0.19737   0. 
 
 NAtoms=      2 NQM=      2 NQMF=      0 NMic=      0 NMicF=      0 NTot=      2.
                    Isotopes and Nuclear Properties:
 (Nuclear quadrupole moments (NQMom) in fm**2, nuclear magnetic moments (NMagM)
  in nuclear magnetons)

  Atom         1           2
 IAtWgt=          16          16
 AtmWgt=  15.9949146  15.9949146
 NucSpn=           0           0
 AtZEff=   0.0000000   0.0000000
 NQMom=    0.0000000   0.0000000
 NMagM=    0.0000000   0.0000000
 Leave Link  101 at Wed Apr  1 00:08:49 2015, MaxMem= 3758096384 cpu:       0.6
 (Enter /share/apps/g09/l103.exe)

 GradGradGradGradGradGradGradGradGradGradGradGradGradGradGradGradGradGrad
 Berny optimization.
 Initialization pass.
                           ----------------------------
                           !    Initial Parameters    !
                           ! (Angstroms and Degrees)  !
 --------------------------                            --------------------------
 ! Name  Definition              Value          Derivative Info.                !
 --------------------------------------------------------------------------------
 ! R1    R(1,2)                  1.1616         estimate D2E/DX2                !
 --------------------------------------------------------------------------------
 Trust Radius=3.00D-01 FncErr=1.00D-07 GrdErr=1.00D-06
 Number of steps in this run=  20 maximum allowed number of steps= 100.
 GradGradGradGradGradGradGradGradGradGradGradGradGradGradGradGradGradGrad

 Leave Link  103 at Wed Apr  1 00:08:49 2015, MaxMem= 3758096384 cpu:       0.1
 (Enter /share/apps/g09/l202.exe)
                          Input orientation:                          
 ---------------------------------------------------------------------
 Center     Atomic      Atomic             Coordinates (Angstroms)
 Number     Number       Type             X           Y           Z
 ---------------------------------------------------------------------
      1          8           0       -1.389803    0.197368    0.000000
      2          8           0       -2.551403    0.197368    0.000000
 ---------------------------------------------------------------------
 Stoichiometry    O2(3)
 Framework group  D*H[C*(O.O)]
 Deg. of freedom     1
 Full point group                 D*H     NOp   8
 Largest Abelian subgroup         D2H     NOp   8
 Largest concise Abelian subgroup C2      NOp   2
                         Standard orientation:                         
 ---------------------------------------------------------------------
 Center     Atomic      Atomic             Coordinates (Angstroms)
 Number     Number       Type             X           Y           Z
 ---------------------------------------------------------------------
      1          8           0        0.000000    0.000000    0.580800
      2          8           0        0.000000    0.000000   -0.580800
 ---------------------------------------------------------------------
 Rotational constants (GHZ):      0.0000000     46.8330086     46.8330086
 Leave Link  202 at Wed Apr  1 00:08:49 2015, MaxMem= 3758096384 cpu:       0.1
 (Enter /share/apps/g09/l301.exe)
 Standard basis: 6-31G(d) (6D, 7F)
 Ernie: Thresh=  0.10000D-02 Tol=  0.10000D-05 Strict=F.
 There are     8 symmetry adapted basis functions of AG  symmetry.
 There are     1 symmetry adapted basis functions of B1G symmetry.
 There are     3 symmetry adapted basis functions of B2G symmetry.
 There are     3 symmetry adapted basis functions of B3G symmetry.
 There are     1 symmetry adapted basis functions of AU  symmetry.
 There are     8 symmetry adapted basis functions of B1U symmetry.
 There are     3 symmetry adapted basis functions of B2U symmetry.
 There are     3 symmetry adapted basis functions of B3U symmetry.
 Integral buffers will be    131072 words long.
 Raffenetti 2 integral format.
 Two-electron integral symmetry is turned on.
    30 basis functions,    56 primitive gaussians,    30 cartesian basis functions
     9 alpha electrons        7 beta electrons
       nuclear repulsion energy        29.1557690683 Hartrees.
 IExCor=  402 DFT=T Ex+Corr=B3LYP ExCW=0 ScaHFX=  0.200000
 ScaDFX=  0.800000  0.720000  1.000000  0.810000 ScalE2=  1.000000  1.000000
 IRadAn=      0 IRanWt=     -1 IRanGd=            0 ICorTp=0
 NAtoms=    2 NActive=    2 NUniq=    1 SFac= 3.00D+00 NAtFMM=   80 NAOKFM=F Big=F
 Leave Link  301 at Wed Apr  1 00:08:49 2015, MaxMem= 3758096384 cpu:       0.5
 (Enter /share/apps/g09/l302.exe)
 NPDir=0 NMtPBC=     1 NCelOv=     1 NCel=       1 NClECP=     1 NCelD=      1
         NCelK=      1 NCelE2=     1 NClLst=     1 CellRange=     0.0.
 One-electron integrals computed using PRISM.
 One-electron integral symmetry used in STVInt
 NBasis=    30 RedAO= T  NBF=     8     1     3     3     1     8     3     3
 NBsUse=    30 1.00D-06 NBFU=     8     1     3     3     1     8     3     3
 Precomputing XC quadrature grid using
 IXCGrd= 2 IRadAn=           0 IRanWt=          -1 IRanGd=           0 AccXCQ= 1.00D-10.
 NRdTot=     122 NPtTot=       15216 NUsed=       16109 NTot=       16141
 NSgBfM=    30    30    30    30    30 NAtAll=     2     2.
 Leave Link  302 at Wed Apr  1 00:08:50 2015, MaxMem= 3758096384 cpu:       6.7
 (Enter /share/apps/g09/l303.exe)
 DipDrv:  MaxL=1.
 Leave Link  303 at Wed Apr  1 00:08:50 2015, MaxMem= 3758096384 cpu:       0.2
 (Enter /share/apps/g09/l401.exe)
 Harris functional with IExCor=  402 diagonalized for initial guess.
 ExpMin= 2.70D-01 ExpMax= 5.48D+03 ExpMxC= 8.25D+02 IAcc=1 IRadAn=         1 AccDes= 0.00D+00
 HarFok:  IExCor=  402 AccDes= 0.00D+00 IRadAn=         1 IDoV= 1
 ScaDFX=  1.000000  1.000000  1.000000  1.000000
 FoFCou: FMM=F IPFlag=           0 FMFlag=      100000 FMFlg1=           0
         NFxFlg=           0 DoJE=T BraDBF=F KetDBF=T FulRan=T
         Omega=  0.000000  0.000000  1.000000  0.000000  0.000000 ICntrl=     500 IOpCl=  0
         NMat0=    1 NMatS0=    1 NMatT0=    0 NMatD0=    1 NMtDS0=    0 NMtDT0=    0
         I1Cent=           4 NGrid=           0.
 Petite list used in FoFCou.
 Harris En= -150.265415642627    
 Initial guess orbital symmetries:
 Alpha Orbitals:
       Occupied  (SGG) (SGU) (SGG) (SGU) (SGG) (PIU) (PIU) (PIG)
                 (PIG)
       Virtual   (SGU) (SGG) (SGU) (PIU) (PIU) (SGG) (PIG) (PIG)
                 (SGU) (DLTG) (DLTG) (PIU) (PIU) (DLTU) (DLTU)
                 (SGG) (PIG) (PIG) (SGU) (SGG) (SGU)
 Beta  Orbitals:
       Occupied  (SGG) (SGU) (SGG) (SGU) (SGG) (PIU) (PIU)
       Virtual   (PIG) (PIG) (SGU) (SGG) (SGU) (PIU) (PIU) (SGG)
                 (PIG) (PIG) (SGU) (DLTG) (DLTG) (PIU) (PIU) (DLTU)
                 (DLTU) (SGG) (PIG) (PIG) (SGU) (SGG) (SGU)
 The electronic state of the initial guess is 3-SGG.
 Initial guess <Sx>= 0.0000 <Sy>= 0.0000 <Sz>= 1.0000 <S**2>= 2.0000 S= 1.0000
 Leave Link  401 at Wed Apr  1 00:08:51 2015, MaxMem= 3758096384 cpu:       6.0
 (Enter /share/apps/g09/l502.exe)
 UHF open shell SCF:
 Requested convergence on RMS density matrix=1.00D-08 within 128 cycles.
 Requested convergence on MAX density matrix=1.00D-06.
 Requested convergence on             energy=1.00D-06.
 No special actions if energy rises.
 Using DIIS extrapolation, IDIIS=  1040.
 Integral symmetry usage will be decided dynamically.
        16078 words used for storage of precomputed grid.
 Keep R1 and R2 ints in memory in canonical form, NReq=1112841.
 IEnd=       37592 IEndB=       37592 NGot=  3758096384 MDV=  3757859645
 LenX=  3757859645 LenY=  3757858304
 Symmetry not used in FoFDir.
 MinBra= 0 MaxBra= 2 Meth= 1.
 IRaf=       0 NMat=   1 IRICut=       1 DoRegI=T DoRafI=F ISym2E= 0 JSym2E=0.
 Integral accuracy reduced to 1.0D-05 until final iterations.

 Cycle   1  Pass 0  IDiag  1:
 E= -150.306196118396    
 DIIS: error= 2.23D-02 at cycle   1 NSaved=   1.
 NSaved= 1 IEnMin= 1 EnMin= -150.306196118396     IErMin= 1 ErrMin= 2.23D-02
 ErrMax= 2.23D-02 EMaxC= 1.00D-01 BMatC= 4.61D-02 BMatP= 4.61D-02
 IDIUse=3 WtCom= 7.77D-01 WtEn= 2.23D-01
 Coeff-Com:  0.100D+01
 Coeff-En:   0.100D+01
 Coeff:      0.100D+01
 Gap=     0.549 Goal=   None    Shift=    0.000
 Gap=     0.386 Goal=   None    Shift=    0.000
 GapD=    0.386 DampG=1.000 DampE=0.500 DampFc=0.5000 IDamp=-1.
 Damping current iteration by 5.00D-01
 RMSDP=3.04D-03 MaxDP=2.91D-02              OVMax= 3.87D-02

 Cycle   2  Pass 0  IDiag  1:
 E= -150.310755238065     Delta-E=       -0.004559119669 Rises=F Damp=T
 DIIS: error= 1.06D-02 at cycle   2 NSaved=   2.
 NSaved= 2 IEnMin= 2 EnMin= -150.310755238065     IErMin= 2 ErrMin= 1.06D-02
 ErrMax= 1.06D-02 EMaxC= 1.00D-01 BMatC= 8.61D-03 BMatP= 4.61D-02
 IDIUse=3 WtCom= 8.94D-01 WtEn= 1.06D-01
 Coeff-Com: -0.626D+00 0.163D+01
 Coeff-En:   0.000D+00 0.100D+01
 Coeff:     -0.560D+00 0.156D+01
 Gap=     0.557 Goal=   None    Shift=    0.000
 Gap=     0.382 Goal=   None    Shift=    0.000
 RMSDP=1.33D-03 MaxDP=1.06D-02 DE=-4.56D-03 OVMax= 1.12D-02

 Cycle   3  Pass 0  IDiag  1:
 E= -150.315257076478     Delta-E=       -0.004501838413 Rises=F Damp=F
 DIIS: error= 1.42D-03 at cycle   3 NSaved=   3.
 NSaved= 3 IEnMin= 3 EnMin= -150.315257076478     IErMin= 3 ErrMin= 1.42D-03
 ErrMax= 1.42D-03 EMaxC= 1.00D-01 BMatC= 1.58D-04 BMatP= 8.61D-03
 IDIUse=3 WtCom= 9.86D-01 WtEn= 1.42D-02
 Coeff-Com: -0.534D-01 0.364D-01 0.102D+01
 Coeff-En:   0.000D+00 0.000D+00 0.100D+01
 Coeff:     -0.527D-01 0.359D-01 0.102D+01
 Gap=     0.558 Goal=   None    Shift=    0.000
 Gap=     0.383 Goal=   None    Shift=    0.000
 RMSDP=2.75D-04 MaxDP=3.26D-03 DE=-4.50D-03 OVMax= 2.65D-03

 Cycle   4  Pass 0  IDiag  1:
 E= -150.315295221533     Delta-E=       -0.000038145055 Rises=F Damp=F
 DIIS: error= 7.51D-04 at cycle   4 NSaved=   4.
 NSaved= 4 IEnMin= 4 EnMin= -150.315295221533     IErMin= 4 ErrMin= 7.51D-04
 ErrMax= 7.51D-04 EMaxC= 1.00D-01 BMatC= 3.59D-05 BMatP= 1.58D-04
 IDIUse=3 WtCom= 9.92D-01 WtEn= 7.51D-03
 Coeff-Com:  0.723D-02-0.545D-01 0.381D+00 0.667D+00
 Coeff-En:   0.000D+00 0.000D+00 0.000D+00 0.100D+01
 Coeff:      0.718D-02-0.541D-01 0.378D+00 0.669D+00
 Gap=     0.558 Goal=   None    Shift=    0.000
 Gap=     0.383 Goal=   None    Shift=    0.000
 RMSDP=7.94D-05 MaxDP=7.09D-04 DE=-3.81D-05 OVMax= 8.14D-04

 Cycle   5  Pass 0  IDiag  1:
 E= -150.315302070487     Delta-E=       -0.000006848954 Rises=F Damp=F
 DIIS: error= 6.88D-05 at cycle   5 NSaved=   5.
 NSaved= 5 IEnMin= 5 EnMin= -150.315302070487     IErMin= 5 ErrMin= 6.88D-05
 ErrMax= 6.88D-05 EMaxC= 1.00D-01 BMatC= 3.01D-07 BMatP= 3.59D-05
 IDIUse=1 WtCom= 1.00D+00 WtEn= 0.00D+00
 Coeff-Com:  0.470D-02-0.795D-02-0.426D-01 0.208D-01 0.103D+01
 Coeff:      0.470D-02-0.795D-02-0.426D-01 0.208D-01 0.103D+01
 Gap=     0.558 Goal=   None    Shift=    0.000
 Gap=     0.383 Goal=   None    Shift=    0.000
 RMSDP=1.23D-05 MaxDP=1.33D-04 DE=-6.85D-06 OVMax= 1.10D-04

 Cycle   6  Pass 0  IDiag  1:
 E= -150.315302159710     Delta-E=       -0.000000089224 Rises=F Damp=F
 DIIS: error= 2.74D-06 at cycle   6 NSaved=   6.
 NSaved= 6 IEnMin= 6 EnMin= -150.315302159710     IErMin= 6 ErrMin= 2.74D-06
 ErrMax= 2.74D-06 EMaxC= 1.00D-01 BMatC= 4.41D-10 BMatP= 3.01D-07
 IDIUse=1 WtCom= 1.00D+00 WtEn= 0.00D+00
 Coeff-Com: -0.509D-03 0.105D-02 0.272D-02-0.455D-02-0.108D+00 0.111D+01
 Coeff:     -0.509D-03 0.105D-02 0.272D-02-0.455D-02-0.108D+00 0.111D+01
 Gap=     0.558 Goal=   None    Shift=    0.000
 Gap=     0.383 Goal=   None    Shift=    0.000
 RMSDP=4.71D-07 MaxDP=3.32D-06 DE=-8.92D-08 OVMax= 4.66D-06

 Initial convergence to 1.0D-05 achieved.  Increase integral accuracy.
 Cycle   7  Pass 1  IDiag  1:
 E= -150.315301892091     Delta-E=        0.000000267619 Rises=F Damp=F
 DIIS: error= 5.79D-06 at cycle   1 NSaved=   1.
 NSaved= 1 IEnMin= 1 EnMin= -150.315301892091     IErMin= 1 ErrMin= 5.79D-06
 ErrMax= 5.79D-06 EMaxC= 1.00D-01 BMatC= 1.49D-09 BMatP= 1.49D-09
 IDIUse=1 WtCom= 1.00D+00 WtEn= 0.00D+00
 Coeff-Com:  0.100D+01
 Coeff:      0.100D+01
 Gap=     0.558 Goal=   None    Shift=    0.000
 Gap=     0.383 Goal=   None    Shift=    0.000
 RMSDP=4.71D-07 MaxDP=3.32D-06 DE= 2.68D-07 OVMax= 8.76D-06

 Cycle   8  Pass 1  IDiag  1:
 E= -150.315301892412     Delta-E=       -0.000000000320 Rises=F Damp=F
 DIIS: error= 2.07D-06 at cycle   2 NSaved=   2.
 NSaved= 2 IEnMin= 2 EnMin= -150.315301892412     IErMin= 2 ErrMin= 2.07D-06
 ErrMax= 2.07D-06 EMaxC= 1.00D-01 BMatC= 3.51D-10 BMatP= 1.49D-09
 IDIUse=1 WtCom= 1.00D+00 WtEn= 0.00D+00
 Coeff-Com:  0.256D+00 0.744D+00
 Coeff:      0.256D+00 0.744D+00
 Gap=     0.558 Goal=   None    Shift=    0.000
 Gap=     0.383 Goal=   None    Shift=    0.000
 RMSDP=3.01D-07 MaxDP=2.34D-06 DE=-3.20D-10 OVMax= 2.52D-06

 Cycle   9  Pass 1  IDiag  1:
 E= -150.315301892470     Delta-E=       -0.000000000058 Rises=F Damp=F
 DIIS: error= 6.45D-07 at cycle   3 NSaved=   3.
 NSaved= 3 IEnMin= 3 EnMin= -150.315301892470     IErMin= 3 ErrMin= 6.45D-07
 ErrMax= 6.45D-07 EMaxC= 1.00D-01 BMatC= 3.24D-11 BMatP= 3.51D-10
 IDIUse=1 WtCom= 1.00D+00 WtEn= 0.00D+00
 Coeff-Com: -0.277D-01 0.216D+00 0.811D+00
 Coeff:     -0.277D-01 0.216D+00 0.811D+00
 Gap=     0.558 Goal=   None    Shift=    0.000
 Gap=     0.383 Goal=   None    Shift=    0.000
 RMSDP=7.89D-08 MaxDP=9.17D-07 DE=-5.82D-11 OVMax= 7.40D-07

 Cycle  10  Pass 1  IDiag  1:
 E= -150.315301892477     Delta-E=       -0.000000000006 Rises=F Damp=F
 DIIS: error= 2.78D-08 at cycle   4 NSaved=   4.
 NSaved= 4 IEnMin= 4 EnMin= -150.315301892477     IErMin= 4 ErrMin= 2.78D-08
 ErrMax= 2.78D-08 EMaxC= 1.00D-01 BMatC= 8.10D-14 BMatP= 3.24D-11
 IDIUse=1 WtCom= 1.00D+00 WtEn= 0.00D+00
 Coeff-Com: -0.172D-02-0.576D-02-0.690D-02 0.101D+01
 Coeff:     -0.172D-02-0.576D-02-0.690D-02 0.101D+01
 Gap=     0.558 Goal=   None    Shift=    0.000
 Gap=     0.383 Goal=   None    Shift=    0.000
 RMSDP=5.77D-09 MaxDP=5.62D-08 DE=-6.48D-12 OVMax= 6.82D-08

 SCF Done:  E(UB3LYP) =  -150.315301892     A.U. after   10 cycles
             Convg  =    0.5769D-08             -V/T =  2.0068
 <Sx>= 0.0000 <Sy>= 0.0000 <Sz>= 1.0000 <S**2>= 2.0062 S= 1.0021
 <L.S>= 0.000000000000E+00
 KE= 1.493058867826D+02 PE=-4.132271616094D+02 EE= 8.445020386604D+01
 Annihilation of the first spin contaminant:
 S**2 before annihilation     2.0062,   after     2.0000
 Leave Link  502 at Wed Apr  1 00:08:52 2015, MaxMem= 3758096384 cpu:      10.9
 (Enter /share/apps/g09/l601.exe)
 Copying SCF densities to generalized density rwf, IOpCl= 1 IROHF=0.

 **********************************************************************

            Population analysis using the SCF density.

 **********************************************************************

 Orbital symmetries:
 Alpha Orbitals:
       Occupied  (SGG) (SGU) (SGG) (SGU) (PIU) (PIU) (SGG) (PIG)
                 (PIG)
       Virtual   (SGU) (SGG) (SGU) (PIU) (PIU) (SGG) (PIG) (PIG)
                 (SGU) (DLTG) (DLTG) (PIU) (PIU) (DLTU) (DLTU)
                 (SGG) (PIG) (PIG) (SGU) (SGG) (SGU)
 Beta  Orbitals:
       Occupied  (SGG) (SGU) (SGG) (SGU) (SGG) (PIU) (PIU)
       Virtual   (PIG) (PIG) (SGU) (SGG) (SGU) (PIU) (PIU) (SGG)
                 (PIG) (PIG) (SGU) (DLTG) (DLTG) (PIU) (PIU) (DLTU)
                 (DLTU) (SGG) (PIG) (PIG) (SGU) (SGG) (SGU)
 The electronic state is 3-SGG.
 Alpha  occ. eigenvalues --  -19.30623 -19.30598  -1.34596  -0.82115  -0.57797
 Alpha  occ. eigenvalues --   -0.57797  -0.55492  -0.29005  -0.29005
 Alpha virt. eigenvalues --    0.26797   0.66877   0.71614   0.77260   0.77260
 Alpha virt. eigenvalues --    0.83738   0.89665   0.89665   1.29880   1.49255
 Alpha virt. eigenvalues --    1.49256   1.51544   1.51544   1.91792   1.91793
 Alpha virt. eigenvalues --    2.50043   2.58946   2.58946   2.79337   3.17079
 Alpha virt. eigenvalues --    3.51235
  Beta  occ. eigenvalues --  -19.27688 -19.27648  -1.29030  -0.73290  -0.51342
  Beta  occ. eigenvalues --   -0.47682  -0.47682
  Beta virt. eigenvalues --   -0.09367  -0.09367   0.31172   0.68682   0.73550
  Beta virt. eigenvalues --    0.82629   0.82629   0.84994   0.95536   0.95536
  Beta virt. eigenvalues --    1.32791   1.54715   1.54716   1.55057   1.55057
  Beta virt. eigenvalues --    1.99036   1.99037   2.53655   2.63217   2.63217
  Beta virt. eigenvalues --    2.81781   3.21473   3.55737
          Condensed to atoms (all electrons):
              1          2
     1  O    7.898108   0.101892
     2  O    0.101892   7.898108
 Mulliken atomic charges:
              1
     1  O    0.000000
     2  O    0.000000
 Sum of Mulliken atomic charges =   0.00000
 Mulliken charges with hydrogens summed into heavy atoms:
              1
     1  O    0.000000
     2  O    0.000000
 Sum of Mulliken charges with hydrogens summed into heavy atoms =   0.00000
          Atomic-Atomic Spin Densities.
              1          2
     1  O    1.379553  -0.379553
     2  O   -0.379553   1.379553
 Mulliken atomic spin densities:
              1
     1  O    1.000000
     2  O    1.000000
 Sum of Mulliken atomic spin densities =   2.00000
 Electronic spatial extent (au):  <R**2>=             41.4176
 Charge=              0.0000 electrons
 Dipole moment (field-independent basis, Debye):
    X=              0.0000    Y=              0.0000    Z=              0.0000  Tot=              0.0000
 Quadrupole moment (field-independent basis, Debye-Ang):
   XX=             -9.7166   YY=             -9.7166   ZZ=            -10.3507
   XY=              0.0000   XZ=              0.0000   YZ=              0.0000
 Traceless Quadrupole moment (field-independent basis, Debye-Ang):
   XX=              0.2114   YY=              0.2114   ZZ=             -0.4227
   XY=              0.0000   XZ=              0.0000   YZ=              0.0000
 Octapole moment (field-independent basis, Debye-Ang**2):
  XXX=              0.0000  YYY=              0.0000  ZZZ=              0.0000  XYY=              0.0000
  XXY=              0.0000  XXZ=              0.0000  XZZ=              0.0000  YZZ=              0.0000
  YYZ=              0.0000  XYZ=              0.0000
 Hexadecapole moment (field-independent basis, Debye-Ang**3):
 XXXX=             -6.3115 YYYY=             -6.3115 ZZZZ=            -26.0910 XXXY=              0.0000
 XXXZ=              0.0000 YYYX=              0.0000 YYYZ=              0.0000 ZZZX=              0.0000
 ZZZY=              0.0000 XXYY=             -2.1038 XXZZ=             -5.6047 YYZZ=             -5.6047
 XXYZ=              0.0000 YYXZ=              0.0000 ZZXY=              0.0000
 N-N= 2.915576906832D+01 E-N=-6.064867833435D+02  KE= 2.205951752986D+02
 Symmetry AG   KE= 1.040423556403D+02
 Symmetry B1G  KE= 2.752117241045D-34
 Symmetry B2G  KE= 3.064330339319D+00
 Symmetry B3G  KE= 3.064330339319D+00
 Symmetry AU   KE= 7.076807456109D-34
 Symmetry B1U  KE= 9.696400460827D+01
 Symmetry B2U  KE= 6.730077185683D+00
 Symmetry B3U  KE= 6.730077185683D+00
                          Isotropic Fermi Contact Couplings
        Atom                 a.u.       MegaHertz       Gauss      10(-4) cm-1
     1  O(17)              0.13986     -42.39001     -15.12581     -14.13978
     2  O(17)              0.13986     -42.39001     -15.12581     -14.13978
 --------------------------------------------------------
       Center         ----  Spin Dipole Couplings  ----
                      3XX-RR        3YY-RR        3ZZ-RR
 --------------------------------------------------------
     1   Atom        1.156590      1.156590     -2.313180
     2   Atom        1.156590      1.156590     -2.313180
 --------------------------------------------------------
                        XY            XZ            YZ
 --------------------------------------------------------
     1   Atom        0.000000      0.000000      0.000000
     2   Atom        0.000000      0.000000      0.000000
 --------------------------------------------------------


 ---------------------------------------------------------------------------------
              Anisotropic Spin Dipole Couplings in Principal Axis System
 ---------------------------------------------------------------------------------

       Atom             a.u.   MegaHertz   Gauss  10(-4) cm-1        Axes

              Baa    -2.3132   167.380    59.725    55.832  0.0000  0.0000  1.0000
     1 O(17)  Bbb     1.1566   -83.690   -29.863   -27.916  0.0000  1.0000  0.0000
              Bcc     1.1566   -83.690   -29.863   -27.916  1.0000  0.0000  0.0000
 
              Baa    -2.3132   167.380    59.725    55.832  0.0000  0.0000  1.0000
     2 O(17)  Bbb     1.1566   -83.690   -29.863   -27.916  0.0051  1.0000  0.0000
              Bcc     1.1566   -83.690   -29.863   -27.916  1.0000 -0.0051  0.0000
 

 ---------------------------------------------------------------------------------

 No NMR shielding tensors so no spin-rotation constants.
 Leave Link  601 at Wed Apr  1 00:08:53 2015, MaxMem= 3758096384 cpu:       7.2
 (Enter /share/apps/g09/l701.exe)
 Compute integral first derivatives.
 ... and contract with generalized density number  0.
 Leave Link  701 at Wed Apr  1 00:08:53 2015, MaxMem= 3758096384 cpu:       5.7
 (Enter /share/apps/g09/l702.exe)
 L702 exits ... SP integral derivatives will be done elsewhere.
 Leave Link  702 at Wed Apr  1 00:08:53 2015, MaxMem= 3758096384 cpu:       0.2
 (Enter /share/apps/g09/l703.exe)
 Compute integral first derivatives, UseDBF=F ICtDFT=           0.
 Integral derivatives from FoFDir, PRISM(SPDF).
 Calling FoFJK, ICntrl=      2127 FMM=F ISym2X=1 I1Cent= 0 IOpClX= 1 NMat=1 NMatS=1 NMatT=0.
 FoFCou: FMM=F IPFlag=           0 FMFlag=      100000 FMFlg1=         800
         NFxFlg=           0 DoJE=F BraDBF=F KetDBF=F FulRan=T
         Omega=  0.000000  0.000000  1.000000  0.000000  0.000000 ICntrl=    2127 IOpCl=  1
         NMat0=    1 NMatS0=    1 NMatT0=    0 NMatD0=    1 NMtDS0=    0 NMtDT0=    0
         I1Cent=           0 NGrid=           0.
 Petite list used in FoFCou.
 Leave Link  703 at Wed Apr  1 00:08:54 2015, MaxMem= 3758096384 cpu:       6.2
 (Enter /share/apps/g09/l716.exe)
 Dipole        =-9.86076132D-31 0.00000000D+00 0.00000000D+00
 ***** Axes restored to original set *****
 -------------------------------------------------------------------
 Center     Atomic                   Forces (Hartrees/Bohr)
 Number     Number              X              Y              Z
 -------------------------------------------------------------------
      1        8           0.101019356    0.000000000    0.000000000
      2        8          -0.101019356    0.000000000    0.000000000
 -------------------------------------------------------------------
 Cartesian Forces:  Max     0.101019356 RMS     0.058323552
 Leave Link  716 at Wed Apr  1 00:08:54 2015, MaxMem= 3758096384 cpu:       0.2
 (Enter /share/apps/g09/l103.exe)

 GradGradGradGradGradGradGradGradGradGradGradGradGradGradGradGradGradGrad
 Berny optimization.
 Internal  Forces:  Max     0.101019356 RMS     0.101019356
 Search for a local minimum.
 Step number   1 out of a maximum of   20
 All quantities printed in internal units (Hartrees-Bohrs-Radians)
 RMS Force = .10102D+00 SwitMx=.10000D-02 MixMth= 1
 Mixed Optimization -- RFO/linear search
 Second derivative matrix not updated -- first step.
 The second derivative matrix:
                          R1
           R1           1.26752
     Eigenvalues ---    1.26752
 RFO step:  Lambda=-8.00056507D-03 EMin= 1.26752312D+00
 Linear search not attempted -- first point.
 Iteration  1 RMS(Cart)=  0.05600168 RMS(Int)=  0.00000000
 Iteration  2 RMS(Cart)=  0.00000000 RMS(Int)=  0.00000000
 ClnCor:  largest displacement from symmetrization is 2.42D-18 for atom     1.
 Variable       Old X    -DE/DX   Delta X   Delta X   Delta X     New X
                                 (Linear)    (Quad)   (Total)
    R1        2.19511   0.10102   0.00000   0.07920   0.07920   2.27430
         Item               Value     Threshold  Converged?
 Maximum Force            0.101019     0.000450     NO 
 RMS     Force            0.101019     0.000300     NO 
 Maximum Displacement     0.039599     0.001800     NO 
 RMS     Displacement     0.056002     0.001200     NO 
 Predicted change in Energy=-4.025374D-03
 GradGradGradGradGradGradGradGradGradGradGradGradGradGradGradGradGradGrad

 Leave Link  103 at Wed Apr  1 00:08:55 2015, MaxMem= 3758096384 cpu:       2.3
 (Enter /share/apps/g09/l202.exe)
                          Input orientation:                          
 ---------------------------------------------------------------------
 Center     Atomic      Atomic             Coordinates (Angstroms)
 Number     Number       Type             X           Y           Z
 ---------------------------------------------------------------------
      1          8           0       -1.368848    0.197368    0.000000
      2          8           0       -2.572358    0.197368    0.000000
 ---------------------------------------------------------------------
 Stoichiometry    O2(3)
 Framework group  D*H[C*(O.O)]
 Deg. of freedom     1
 Full point group                 D*H     NOp   8
 Largest Abelian subgroup         D2H     NOp   8
 Largest concise Abelian subgroup C2      NOp   2
                         Standard orientation:                         
 ---------------------------------------------------------------------
 Center     Atomic      Atomic             Coordinates (Angstroms)
 Number     Number       Type             X           Y           Z
 ---------------------------------------------------------------------
      1          8           0        0.000000    0.000000    0.601755
      2          8           0        0.000000    0.000000   -0.601755
 ---------------------------------------------------------------------
 Rotational constants (GHZ):      0.0000000     43.6280589     43.6280589
 Leave Link  202 at Wed Apr  1 00:08:55 2015, MaxMem= 3758096384 cpu:       0.3
 (Enter /share/apps/g09/l301.exe)
 Standard basis: 6-31G(d) (6D, 7F)
 Ernie: Thresh=  0.10000D-02 Tol=  0.10000D-05 Strict=F.
 There are     8 symmetry adapted basis functions of AG  symmetry.
 There are     1 symmetry adapted basis functions of B1G symmetry.
 There are     3 symmetry adapted basis functions of B2G symmetry.
 There are     3 symmetry adapted basis functions of B3G symmetry.
 There are     1 symmetry adapted basis functions of AU  symmetry.
 There are     8 symmetry adapted basis functions of B1U symmetry.
 There are     3 symmetry adapted basis functions of B2U symmetry.
 There are     3 symmetry adapted basis functions of B3U symmetry.
 Integral buffers will be    131072 words long.
 Raffenetti 2 integral format.
 Two-electron integral symmetry is turned on.
    30 basis functions,    56 primitive gaussians,    30 cartesian basis functions
     9 alpha electrons        7 beta electrons
       nuclear repulsion energy        28.1404746155 Hartrees.
 IExCor=  402 DFT=T Ex+Corr=B3LYP ExCW=0 ScaHFX=  0.200000
 ScaDFX=  0.800000  0.720000  1.000000  0.810000 ScalE2=  1.000000  1.000000
 IRadAn=      0 IRanWt=     -1 IRanGd=            0 ICorTp=0
 NAtoms=    2 NActive=    2 NUniq=    1 SFac= 3.00D+00 NAtFMM=   80 NAOKFM=F Big=F
 Leave Link  301 at Wed Apr  1 00:08:55 2015, MaxMem= 3758096384 cpu:       0.5
 (Enter /share/apps/g09/l302.exe)
 NPDir=0 NMtPBC=     1 NCelOv=     1 NCel=       1 NClECP=     1 NCelD=      1
         NCelK=      1 NCelE2=     1 NClLst=     1 CellRange=     0.0.
 One-electron integrals computed using PRISM.
 One-electron integral symmetry used in STVInt
 NBasis=    30 RedAO= T  NBF=     8     1     3     3     1     8     3     3
 NBsUse=    30 1.00D-06 NBFU=     8     1     3     3     1     8     3     3
 Precomputing XC quadrature grid using
 IXCGrd= 2 IRadAn=           0 IRanWt=          -1 IRanGd=           0 AccXCQ= 1.00D-10.
 NRdTot=     122 NPtTot=       15216 NUsed=       16109 NTot=       16141
 NSgBfM=    30    30    30    30    30 NAtAll=     2     2.
 Leave Link  302 at Wed Apr  1 00:08:55 2015, MaxMem= 3758096384 cpu:       3.6
 (Enter /share/apps/g09/l303.exe)
 DipDrv:  MaxL=1.
 Leave Link  303 at Wed Apr  1 00:08:55 2015, MaxMem= 3758096384 cpu:       1.2
 (Enter /share/apps/g09/l401.exe)
 Initial guess read from the read-write file.
 B after Tr=     0.000000    0.000000    0.000000
         Rot=    1.000000    0.000000    0.000000    0.000000 Ang=   0.00 deg.
 Guess basis will be translated and rotated to current coordinates.
 Initial guess orbital symmetries:
 Alpha Orbitals:
       Occupied  (SGG) (SGU) (SGG) (SGU) (PIU) (PIU) (SGG) (PIG)
                 (PIG)
       Virtual   (SGU) (SGG) (SGU) (PIU) (PIU) (SGG) (PIG) (PIG)
                 (SGU) (DLTG) (DLTG) (PIU) (PIU) (DLTU) (DLTU)
                 (SGG) (PIG) (PIG) (SGU) (SGG) (SGU)
 Beta  Orbitals:
       Occupied  (SGG) (SGU) (SGG) (SGU) (SGG) (PIU) (PIU)
       Virtual   (PIG) (PIG) (SGU) (SGG) (SGU) (PIU) (PIU) (SGG)
                 (PIG) (PIG) (SGU) (DLTG) (DLTG) (PIU) (PIU) (DLTU)
                 (DLTU) (SGG) (PIG) (PIG) (SGU) (SGG) (SGU)
 The electronic state of the initial guess is 3-SGG.
 Initial guess <Sx>= 0.0000 <Sy>= 0.0000 <Sz>= 1.0000 <S**2>= 2.0063 S= 1.0021
 Generating alternative initial guess.
 Harris functional with IExCor=  402 diagonalized for initial guess.
 ExpMin= 2.70D-01 ExpMax= 5.48D+03 ExpMxC= 8.25D+02 IAcc=1 IRadAn=         1 AccDes= 0.00D+00
 HarFok:  IExCor=  402 AccDes= 0.00D+00 IRadAn=         1 IDoV= 1
 ScaDFX=  1.000000  1.000000  1.000000  1.000000
 FoFCou: FMM=F IPFlag=           0 FMFlag=      100000 FMFlg1=           0
         NFxFlg=           0 DoJE=T BraDBF=F KetDBF=T FulRan=T
         Omega=  0.000000  0.000000  1.000000  0.000000  0.000000 ICntrl=     500 IOpCl=  0
         NMat0=    1 NMatS0=    1 NMatT0=    0 NMatD0=    1 NMtDS0=    0 NMtDT0=    0
         I1Cent=           4 NGrid=           0.
 Petite list used in FoFCou.
 Harris En= -150.273084626190    
 Leave Link  401 at Wed Apr  1 00:08:58 2015, MaxMem= 3758096384 cpu:      18.5
 (Enter /share/apps/g09/l502.exe)
 UHF open shell SCF:
 Requested convergence on RMS density matrix=1.00D-08 within 128 cycles.
 Requested convergence on MAX density matrix=1.00D-06.
 Requested convergence on             energy=1.00D-06.
 No special actions if energy rises.
 Using DIIS extrapolation, IDIIS=  1040.
 Integral symmetry usage will be decided dynamically.
        16078 words used for storage of precomputed grid.
 Keep R1 and R2 ints in memory in canonical form, NReq=1112841.
 IEnd=       37592 IEndB=       37592 NGot=  3758096384 MDV=  3757859645
 LenX=  3757859645 LenY=  3757858304
 Symmetry not used in FoFDir.
 MinBra= 0 MaxBra= 2 Meth= 1.
 IRaf=       0 NMat=   1 IRICut=       1 DoRegI=T DoRafI=F ISym2E= 0 JSym2E=0.
 Integral accuracy reduced to 1.0D-05 until final iterations.

 Cycle   1  Pass 0  IDiag  1:
 E= -150.318366899776    
 DIIS: error= 7.25D-03 at cycle   1 NSaved=   1.
 NSaved= 1 IEnMin= 1 EnMin= -150.318366899776     IErMin= 1 ErrMin= 7.25D-03
 ErrMax= 7.25D-03 EMaxC= 1.00D-01 BMatC= 5.01D-03 BMatP= 5.01D-03
 IDIUse=3 WtCom= 9.28D-01 WtEn= 7.25D-02
 Coeff-Com:  0.100D+01
 Coeff-En:   0.100D+01
 Coeff:      0.100D+01
 Gap=     0.531 Goal=   None    Shift=    0.000
 Gap=     0.354 Goal=   None    Shift=    0.000
 GapD=    0.354 DampG=1.000 DampE=1.000 DampFc=1.0000 IDamp=-1.
 RMSDP=1.30D-03 MaxDP=8.42D-03              OVMax= 1.37D-02

 Cycle   2  Pass 0  IDiag  1:
 E= -150.319812227488     Delta-E=       -0.001445327713 Rises=F Damp=F
 DIIS: error= 1.57D-03 at cycle   2 NSaved=   2.
 NSaved= 2 IEnMin= 2 EnMin= -150.319812227488     IErMin= 2 ErrMin= 1.57D-03
 ErrMax= 1.57D-03 EMaxC= 1.00D-01 BMatC= 2.26D-04 BMatP= 5.01D-03
 IDIUse=3 WtCom= 9.84D-01 WtEn= 1.57D-02
 Coeff-Com:  0.524D-01 0.948D+00
 Coeff-En:   0.000D+00 0.100D+01
 Coeff:      0.515D-01 0.948D+00
 Gap=     0.515 Goal=   None    Shift=    0.000
 Gap=     0.352 Goal=   None    Shift=    0.000
 RMSDP=3.50D-04 MaxDP=3.32D-03 DE=-1.45D-03 OVMax= 3.00D-03

 Cycle   3  Pass 0  IDiag  1:
 E= -150.319842108340     Delta-E=       -0.000029880852 Rises=F Damp=F
 DIIS: error= 1.06D-03 at cycle   3 NSaved=   3.
 NSaved= 3 IEnMin= 3 EnMin= -150.319842108340     IErMin= 3 ErrMin= 1.06D-03
 ErrMax= 1.06D-03 EMaxC= 1.00D-01 BMatC= 9.21D-05 BMatP= 2.26D-04
 IDIUse=3 WtCom= 9.89D-01 WtEn= 1.06D-02
 Coeff-Com: -0.270D-01 0.381D+00 0.646D+00
 Coeff-En:   0.000D+00 0.168D+00 0.832D+00
 Coeff:     -0.267D-01 0.379D+00 0.648D+00
 Gap=     0.515 Goal=   None    Shift=    0.000
 Gap=     0.352 Goal=   None    Shift=    0.000
 RMSDP=1.17D-04 MaxDP=1.04D-03 DE=-2.99D-05 OVMax= 1.07D-03

 Cycle   4  Pass 0  IDiag  1:
 E= -150.319859321109     Delta-E=       -0.000017212769 Rises=F Damp=F
 DIIS: error= 4.66D-05 at cycle   4 NSaved=   4.
 NSaved= 4 IEnMin= 4 EnMin= -150.319859321109     IErMin= 4 ErrMin= 4.66D-05
 ErrMax= 4.66D-05 EMaxC= 1.00D-01 BMatC= 1.52D-07 BMatP= 9.21D-05
 IDIUse=1 WtCom= 1.00D+00 WtEn= 0.00D+00
 Coeff-Com: -0.511D-03-0.225D-02 0.188D-01 0.984D+00
 Coeff:     -0.511D-03-0.225D-02 0.188D-01 0.984D+00
 Gap=     0.515 Goal=   None    Shift=    0.000
 Gap=     0.352 Goal=   None    Shift=    0.000
 RMSDP=7.11D-06 MaxDP=6.74D-05 DE=-1.72D-05 OVMax= 8.08D-05

 Initial convergence to 1.0D-05 achieved.  Increase integral accuracy.
 Cycle   5  Pass 1  IDiag  1:
 E= -150.319856752253     Delta-E=        0.000002568856 Rises=F Damp=F
 DIIS: error= 1.32D-05 at cycle   1 NSaved=   1.
 NSaved= 1 IEnMin= 1 EnMin= -150.319856752253     IErMin= 1 ErrMin= 1.32D-05
 ErrMax= 1.32D-05 EMaxC= 1.00D-01 BMatC= 1.28D-08 BMatP= 1.28D-08
 IDIUse=1 WtCom= 1.00D+00 WtEn= 0.00D+00
 Coeff-Com:  0.100D+01
 Coeff:      0.100D+01
 Gap=     0.515 Goal=   None    Shift=    0.000
 Gap=     0.352 Goal=   None    Shift=    0.000
 RMSDP=7.11D-06 MaxDP=6.74D-05 DE= 2.57D-06 OVMax= 2.37D-05

 Cycle   6  Pass 1  IDiag  1:
 E= -150.319856754684     Delta-E=       -0.000000002431 Rises=F Damp=F
 DIIS: error= 5.36D-06 at cycle   2 NSaved=   2.
 NSaved= 2 IEnMin= 2 EnMin= -150.319856754684     IErMin= 2 ErrMin= 5.36D-06
 ErrMax= 5.36D-06 EMaxC= 1.00D-01 BMatC= 2.28D-09 BMatP= 1.28D-08
 IDIUse=1 WtCom= 1.00D+00 WtEn= 0.00D+00
 Coeff-Com:  0.265D+00 0.735D+00
 Coeff:      0.265D+00 0.735D+00
 Gap=     0.515 Goal=   None    Shift=    0.000
 Gap=     0.352 Goal=   None    Shift=    0.000
 RMSDP=6.16D-07 MaxDP=5.29D-06 DE=-2.43D-09 OVMax= 6.80D-06

 Cycle   7  Pass 1  IDiag  1:
 E= -150.319856755103     Delta-E=       -0.000000000419 Rises=F Damp=F
 DIIS: error= 1.54D-06 at cycle   3 NSaved=   3.
 NSaved= 3 IEnMin= 3 EnMin= -150.319856755103     IErMin= 3 ErrMin= 1.54D-06
 ErrMax= 1.54D-06 EMaxC= 1.00D-01 BMatC= 1.16D-10 BMatP= 2.28D-09
 IDIUse=1 WtCom= 1.00D+00 WtEn= 0.00D+00
 Coeff-Com:  0.654D-03 0.133D+00 0.866D+00
 Coeff:      0.654D-03 0.133D+00 0.866D+00
 Gap=     0.515 Goal=   None    Shift=    0.000
 Gap=     0.352 Goal=   None    Shift=    0.000
 RMSDP=1.72D-07 MaxDP=1.79D-06 DE=-4.19D-10 OVMax= 2.14D-06

 Cycle   8  Pass 1  IDiag  1:
 E= -150.319856755127     Delta-E=       -0.000000000024 Rises=F Damp=F
 DIIS: error= 4.39D-07 at cycle   4 NSaved=   4.
 NSaved= 4 IEnMin= 4 EnMin= -150.319856755127     IErMin= 4 ErrMin= 4.39D-07
 ErrMax= 4.39D-07 EMaxC= 1.00D-01 BMatC= 1.34D-11 BMatP= 1.16D-10
 IDIUse=1 WtCom= 1.00D+00 WtEn= 0.00D+00
 Coeff-Com: -0.283D-01-0.400D-01 0.233D+00 0.836D+00
 Coeff:     -0.283D-01-0.400D-01 0.233D+00 0.836D+00
 Gap=     0.515 Goal=   None    Shift=    0.000
 Gap=     0.352 Goal=   None    Shift=    0.000
 RMSDP=6.28D-08 MaxDP=6.94D-07 DE=-2.40D-11 OVMax= 5.52D-07

 Cycle   9  Pass 1  IDiag  1:
 E= -150.319856755130     Delta-E=       -0.000000000003 Rises=F Damp=F
 DIIS: error= 3.43D-08 at cycle   5 NSaved=   5.
 NSaved= 5 IEnMin= 5 EnMin= -150.319856755130     IErMin= 5 ErrMin= 3.43D-08
 ErrMax= 3.43D-08 EMaxC= 1.00D-01 BMatC= 6.36D-14 BMatP= 1.34D-11
 IDIUse=1 WtCom= 1.00D+00 WtEn= 0.00D+00
 Coeff-Com:  0.176D-02 0.362D-03-0.343D-01-0.206D-01 0.105D+01
 Coeff:      0.176D-02 0.362D-03-0.343D-01-0.206D-01 0.105D+01
 Gap=     0.515 Goal=   None    Shift=    0.000
 Gap=     0.352 Goal=   None    Shift=    0.000
 RMSDP=3.97D-09 MaxDP=4.70D-08 DE=-2.84D-12 OVMax= 4.46D-08

 SCF Done:  E(UB3LYP) =  -150.319856755     A.U. after    9 cycles
             Convg  =    0.3970D-08             -V/T =  2.0079
 <Sx>= 0.0000 <Sy>= 0.0000 <Sz>= 1.0000 <S**2>= 2.0065 S= 1.0022
 <L.S>= 0.000000000000E+00
 KE= 1.491368696499D+02 PE=-4.111276289197D+02 EE= 8.353042789918D+01
 Annihilation of the first spin contaminant:
 S**2 before annihilation     2.0065,   after     2.0000
 Leave Link  502 at Wed Apr  1 00:09:00 2015, MaxMem= 3758096384 cpu:      22.3
 (Enter /share/apps/g09/l701.exe)
 Compute integral first derivatives.
 ... and contract with generalized density number  0.
 Leave Link  701 at Wed Apr  1 00:09:01 2015, MaxMem= 3758096384 cpu:       5.3
 (Enter /share/apps/g09/l702.exe)
 L702 exits ... SP integral derivatives will be done elsewhere.
 Leave Link  702 at Wed Apr  1 00:09:01 2015, MaxMem= 3758096384 cpu:       0.2
 (Enter /share/apps/g09/l703.exe)
 Compute integral first derivatives, UseDBF=F ICtDFT=           0.
 Integral derivatives from FoFDir, PRISM(SPDF).
 Calling FoFJK, ICntrl=      2127 FMM=F ISym2X=1 I1Cent= 0 IOpClX= 1 NMat=1 NMatS=1 NMatT=0.
 FoFCou: FMM=F IPFlag=           0 FMFlag=      100000 FMFlg1=         800
         NFxFlg=           0 DoJE=F BraDBF=F KetDBF=F FulRan=T
         Omega=  0.000000  0.000000  1.000000  0.000000  0.000000 ICntrl=    2127 IOpCl=  1
         NMat0=    1 NMatS0=    1 NMatT0=    0 NMatD0=    1 NMtDS0=    0 NMtDT0=    0
         I1Cent=           0 NGrid=           0.
 Petite list used in FoFCou.
 Leave Link  703 at Wed Apr  1 00:09:01 2015, MaxMem= 3758096384 cpu:       4.1
 (Enter /share/apps/g09/l716.exe)
 Dipole        =-1.57772181D-30-9.62964972D-34 0.00000000D+00
 ***** Axes restored to original set *****
 -------------------------------------------------------------------
 Center     Atomic                   Forces (Hartrees/Bohr)
 Number     Number              X              Y              Z
 -------------------------------------------------------------------
      1        8           0.018042971    0.000000000    0.000000000
      2        8          -0.018042971    0.000000000    0.000000000
 -------------------------------------------------------------------
 Cartesian Forces:  Max     0.018042971 RMS     0.010417114
 Leave Link  716 at Wed Apr  1 00:09:01 2015, MaxMem= 3758096384 cpu:       0.1
 (Enter /share/apps/g09/l103.exe)

 GradGradGradGradGradGradGradGradGradGradGradGradGradGradGradGradGradGrad
 Berny optimization.
 Using GEDIIS/GDIIS optimizer.
 Internal  Forces:  Max     0.018042971 RMS     0.018042971
 Search for a local minimum.
 Step number   2 out of a maximum of   20
 All quantities printed in internal units (Hartrees-Bohrs-Radians)
 RMS Force = .18043D-01 SwitMx=.10000D-02 MixMth= 1
 Mixed Optimization -- RFO/linear search
 Update second derivatives using D2CorX and points    1    2
 DE= -4.55D-03 DEPred=-4.03D-03 R= 1.13D+00
 SS=  1.41D+00  RLast= 7.92D-02 DXNew= 5.0454D-01 2.3760D-01
 Trust test= 1.13D+00 RLast= 7.92D-02 DXMaxT set to 3.00D-01
 The second derivative matrix:
                          R1
           R1           1.04770
 Use linear search instead of GDIIS.
     Eigenvalues ---    1.04770
 RFO step:  Lambda= 0.00000000D+00 EMin= 1.04770361D+00
 Quartic linear search produced a step of  0.26445.
 Iteration  1 RMS(Cart)=  0.01480943 RMS(Int)=  0.00000000
 Iteration  2 RMS(Cart)=  0.00000000 RMS(Int)=  0.00000000
 ClnCor:  largest displacement from symmetrization is 8.88D-16 for atom     2.
 Variable       Old X    -DE/DX   Delta X   Delta X   Delta X     New X
                                 (Linear)    (Quad)   (Total)
    R1        2.27430   0.01804   0.02094   0.00000   0.02094   2.29525
         Item               Value     Threshold  Converged?
 Maximum Force            0.018043     0.000450     NO 
 RMS     Force            0.018043     0.000300     NO 
 Maximum Displacement     0.010472     0.001800     NO 
 RMS     Displacement     0.014809     0.001200     NO 
 Predicted change in Energy=-1.481050D-04
 GradGradGradGradGradGradGradGradGradGradGradGradGradGradGradGradGradGrad

 Leave Link  103 at Wed Apr  1 00:09:01 2015, MaxMem= 3758096384 cpu:       0.7
 (Enter /share/apps/g09/l202.exe)
                          Input orientation:                          
 ---------------------------------------------------------------------
 Center     Atomic      Atomic             Coordinates (Angstroms)
 Number     Number       Type             X           Y           Z
 ---------------------------------------------------------------------
      1          8           0       -1.363306    0.197368    0.000000
      2          8           0       -2.577899    0.197368    0.000000
 ---------------------------------------------------------------------
 Stoichiometry    O2(3)
 Framework group  D*H[C*(O.O)]
 Deg. of freedom     1
 Full point group                 D*H     NOp   8
 Largest Abelian subgroup         D2H     NOp   8
 Largest concise Abelian subgroup C2      NOp   2
                         Standard orientation:                         
 ---------------------------------------------------------------------
 Center     Atomic      Atomic             Coordinates (Angstroms)
 Number     Number       Type             X           Y           Z
 ---------------------------------------------------------------------
      1          8           0        0.000000    0.000000    0.607296
      2          8           0        0.000000    0.000000   -0.607296
 ---------------------------------------------------------------------
 Rotational constants (GHZ):      0.0000000     42.8354962     42.8354962
 Leave Link  202 at Wed Apr  1 00:09:02 2015, MaxMem= 3758096384 cpu:       0.4
 (Enter /share/apps/g09/l301.exe)
 Standard basis: 6-31G(d) (6D, 7F)
 Ernie: Thresh=  0.10000D-02 Tol=  0.10000D-05 Strict=F.
 There are     8 symmetry adapted basis functions of AG  symmetry.
 There are     1 symmetry adapted basis functions of B1G symmetry.
 There are     3 symmetry adapted basis functions of B2G symmetry.
 There are     3 symmetry adapted basis functions of B3G symmetry.
 There are     1 symmetry adapted basis functions of AU  symmetry.
 There are     8 symmetry adapted basis functions of B1U symmetry.
 There are     3 symmetry adapted basis functions of B2U symmetry.
 There are     3 symmetry adapted basis functions of B3U symmetry.
 Integral buffers will be    131072 words long.
 Raffenetti 2 integral format.
 Two-electron integral symmetry is turned on.
    30 basis functions,    56 primitive gaussians,    30 cartesian basis functions
     9 alpha electrons        7 beta electrons
       nuclear repulsion energy        27.8836981948 Hartrees.
 IExCor=  402 DFT=T Ex+Corr=B3LYP ExCW=0 ScaHFX=  0.200000
 ScaDFX=  0.800000  0.720000  1.000000  0.810000 ScalE2=  1.000000  1.000000
 IRadAn=      0 IRanWt=     -1 IRanGd=            0 ICorTp=0
 NAtoms=    2 NActive=    2 NUniq=    1 SFac= 3.00D+00 NAtFMM=   80 NAOKFM=F Big=F
 Leave Link  301 at Wed Apr  1 00:09:02 2015, MaxMem= 3758096384 cpu:       0.4
 (Enter /share/apps/g09/l302.exe)
 NPDir=0 NMtPBC=     1 NCelOv=     1 NCel=       1 NClECP=     1 NCelD=      1
         NCelK=      1 NCelE2=     1 NClLst=     1 CellRange=     0.0.
 One-electron integrals computed using PRISM.
 One-electron integral symmetry used in STVInt
 NBasis=    30 RedAO= T  NBF=     8     1     3     3     1     8     3     3
 NBsUse=    30 1.00D-06 NBFU=     8     1     3     3     1     8     3     3
 Precomputing XC quadrature grid using
 IXCGrd= 2 IRadAn=           0 IRanWt=          -1 IRanGd=           0 AccXCQ= 1.00D-10.
 NRdTot=     122 NPtTot=       15216 NUsed=       16109 NTot=       16141
 NSgBfM=    30    30    30    30    30 NAtAll=     2     2.
 Leave Link  302 at Wed Apr  1 00:09:03 2015, MaxMem= 3758096384 cpu:       7.3
 (Enter /share/apps/g09/l303.exe)
 DipDrv:  MaxL=1.
 Leave Link  303 at Wed Apr  1 00:09:03 2015, MaxMem= 3758096384 cpu:       0.7
 (Enter /share/apps/g09/l401.exe)
 Initial guess read from the read-write file.
 B after Tr=     0.000000    0.000000    0.000000
         Rot=    1.000000    0.000000    0.000000    0.000000 Ang=   0.00 deg.
 Guess basis will be translated and rotated to current coordinates.
 Initial guess orbital symmetries:
 Alpha Orbitals:
       Occupied  (SGG) (SGU) (SGG) (SGU) (PIU) (PIU) (SGG) (PIG)
                 (PIG)
       Virtual   (SGU) (SGG) (SGU) (PIU) (PIU) (SGG) (PIG) (PIG)
                 (SGU) (PIU) (PIU) (DLTG) (DLTG) (DLTU) (DLTU)
                 (SGG) (PIG) (PIG) (SGU) (SGG) (SGU)
 Beta  Orbitals:
       Occupied  (SGG) (SGU) (SGG) (SGU) (SGG) (PIU) (PIU)
       Virtual   (PIG) (PIG) (SGU) (SGG) (SGU) (PIU) (PIU) (SGG)
                 (PIG) (PIG) (SGU) (PIU) (PIU) (DLTG) (DLTG) (DLTU)
                 (DLTU) (SGG) (PIG) (PIG) (SGU) (SGG) (SGU)
 The electronic state of the initial guess is 3-SGG.
 Initial guess <Sx>= 0.0000 <Sy>= 0.0000 <Sz>= 1.0000 <S**2>= 2.0065 S= 1.0022
 Leave Link  401 at Wed Apr  1 00:09:04 2015, MaxMem= 3758096384 cpu:       7.8
 (Enter /share/apps/g09/l502.exe)
 UHF open shell SCF:
 Requested convergence on RMS density matrix=1.00D-08 within 128 cycles.
 Requested convergence on MAX density matrix=1.00D-06.
 Requested convergence on             energy=1.00D-06.
 No special actions if energy rises.
 Using DIIS extrapolation, IDIIS=  1040.
 Integral symmetry usage will be decided dynamically.
        16078 words used for storage of precomputed grid.
 Keep R1 and R2 ints in memory in canonical form, NReq=1112841.
 IEnd=       37592 IEndB=       37592 NGot=  3758096384 MDV=  3757859645
 LenX=  3757859645 LenY=  3757858304
 Symmetry not used in FoFDir.
 MinBra= 0 MaxBra= 2 Meth= 1.
 IRaf=       0 NMat=   1 IRICut=       1 DoRegI=T DoRafI=F ISym2E= 0 JSym2E=0.

 Cycle   1  Pass 1  IDiag  1:
 E= -150.319945507957    
 DIIS: error= 1.86D-03 at cycle   1 NSaved=   1.
 NSaved= 1 IEnMin= 1 EnMin= -150.319945507957     IErMin= 1 ErrMin= 1.86D-03
 ErrMax= 1.86D-03 EMaxC= 1.00D-01 BMatC= 3.22D-04 BMatP= 3.22D-04
 IDIUse=3 WtCom= 9.81D-01 WtEn= 1.86D-02
 Coeff-Com:  0.100D+01
 Coeff-En:   0.100D+01
 Coeff:      0.100D+01
 Gap=     0.506 Goal=   None    Shift=    0.000
 Gap=     0.344 Goal=   None    Shift=    0.000
 GapD=    0.344 DampG=1.000 DampE=1.000 DampFc=1.0000 IDamp=-1.
 RMSDP=3.28D-04 MaxDP=2.14D-03              OVMax= 3.57D-03

 Cycle   2  Pass 1  IDiag  1:
 E= -150.320039126553     Delta-E=       -0.000093618596 Rises=F Damp=F
 DIIS: error= 4.01D-04 at cycle   2 NSaved=   2.
 NSaved= 2 IEnMin= 2 EnMin= -150.320039126553     IErMin= 2 ErrMin= 4.01D-04
 ErrMax= 4.01D-04 EMaxC= 1.00D-01 BMatC= 1.41D-05 BMatP= 3.22D-04
 IDIUse=3 WtCom= 9.96D-01 WtEn= 4.01D-03
 Coeff-Com:  0.492D-01 0.951D+00
 Coeff-En:   0.000D+00 0.100D+01
 Coeff:      0.490D-01 0.951D+00
 Gap=     0.505 Goal=   None    Shift=    0.000
 Gap=     0.344 Goal=   None    Shift=    0.000
 RMSDP=8.70D-05 MaxDP=8.26D-04 DE=-9.36D-05 OVMax= 7.40D-04

 Cycle   3  Pass 1  IDiag  1:
 E= -150.320040991933     Delta-E=       -0.000001865380 Rises=F Damp=F
 DIIS: error= 2.65D-04 at cycle   3 NSaved=   3.
 NSaved= 3 IEnMin= 3 EnMin= -150.320040991933     IErMin= 3 ErrMin= 2.65D-04
 ErrMax= 2.65D-04 EMaxC= 1.00D-01 BMatC= 5.79D-06 BMatP= 1.41D-05
 IDIUse=3 WtCom= 9.97D-01 WtEn= 2.65D-03
 Coeff-Com: -0.273D-01 0.382D+00 0.645D+00
 Coeff-En:   0.000D+00 0.167D+00 0.833D+00
 Coeff:     -0.272D-01 0.382D+00 0.646D+00
 Gap=     0.505 Goal=   None    Shift=    0.000
 Gap=     0.344 Goal=   None    Shift=    0.000
 RMSDP=2.91D-05 MaxDP=2.61D-04 DE=-1.87D-06 OVMax= 2.65D-04

 Cycle   4  Pass 1  IDiag  1:
 E= -150.320042073079     Delta-E=       -0.000001081146 Rises=F Damp=F
 DIIS: error= 1.12D-05 at cycle   4 NSaved=   4.
 NSaved= 4 IEnMin= 4 EnMin= -150.320042073079     IErMin= 4 ErrMin= 1.12D-05
 ErrMax= 1.12D-05 EMaxC= 1.00D-01 BMatC= 9.16D-09 BMatP= 5.79D-06
 IDIUse=1 WtCom= 1.00D+00 WtEn= 0.00D+00
 Coeff-Com: -0.912D-03 0.496D-02 0.274D-01 0.969D+00
 Coeff:     -0.912D-03 0.496D-02 0.274D-01 0.969D+00
 Gap=     0.505 Goal=   None    Shift=    0.000
 Gap=     0.344 Goal=   None    Shift=    0.000
 RMSDP=1.71D-06 MaxDP=1.67D-05 DE=-1.08D-06 OVMax= 2.06D-05

 Cycle   5  Pass 1  IDiag  1:
 E= -150.320042075474     Delta-E=       -0.000000002395 Rises=F Damp=F
 DIIS: error= 3.15D-06 at cycle   5 NSaved=   5.
 NSaved= 5 IEnMin= 5 EnMin= -150.320042075474     IErMin= 5 ErrMin= 3.15D-06
 ErrMax= 3.15D-06 EMaxC= 1.00D-01 BMatC= 7.85D-10 BMatP= 9.16D-09
 IDIUse=1 WtCom= 1.00D+00 WtEn= 0.00D+00
 Coeff-Com:  0.889D-03-0.164D-01-0.249D-01 0.153D+00 0.888D+00
 Coeff:      0.889D-03-0.164D-01-0.249D-01 0.153D+00 0.888D+00
 Gap=     0.505 Goal=   None    Shift=    0.000
 Gap=     0.344 Goal=   None    Shift=    0.000
 RMSDP=4.22D-07 MaxDP=4.27D-06 DE=-2.40D-09 OVMax= 4.91D-06

 Cycle   6  Pass 1  IDiag  1:
 E= -150.320042075655     Delta-E=       -0.000000000181 Rises=F Damp=F
 DIIS: error= 3.41D-07 at cycle   6 NSaved=   6.
 NSaved= 6 IEnMin= 6 EnMin= -150.320042075655     IErMin= 6 ErrMin= 3.41D-07
 ErrMax= 3.41D-07 EMaxC= 1.00D-01 BMatC= 9.64D-12 BMatP= 7.85D-10
 IDIUse=1 WtCom= 1.00D+00 WtEn= 0.00D+00
 Coeff-Com: -0.145D-04 0.909D-03 0.492D-03-0.422D-01-0.432D-01 0.108D+01
 Coeff:     -0.145D-04 0.909D-03 0.492D-03-0.422D-01-0.432D-01 0.108D+01
 Gap=     0.505 Goal=   None    Shift=    0.000
 Gap=     0.344 Goal=   None    Shift=    0.000
 RMSDP=6.63D-08 MaxDP=6.94D-07 DE=-1.81D-10 OVMax= 5.93D-07

 Cycle   7  Pass 1  IDiag  1:
 E= -150.320042075658     Delta-E=       -0.000000000003 Rises=F Damp=F
 DIIS: error= 1.76D-08 at cycle   7 NSaved=   7.
 NSaved= 7 IEnMin= 7 EnMin= -150.320042075658     IErMin= 7 ErrMin= 1.76D-08
 ErrMax= 1.76D-08 EMaxC= 1.00D-01 BMatC= 1.66D-14 BMatP= 9.64D-12
 IDIUse=1 WtCom= 1.00D+00 WtEn= 0.00D+00
 Coeff-Com: -0.654D-06-0.148D-04 0.649D-05 0.143D-02 0.362D-02-0.668D-01
 Coeff-Com:  0.106D+01
 Coeff:     -0.654D-06-0.148D-04 0.649D-05 0.143D-02 0.362D-02-0.668D-01
 Coeff:      0.106D+01
 Gap=     0.505 Goal=   None    Shift=    0.000
 Gap=     0.344 Goal=   None    Shift=    0.000
 RMSDP=1.99D-09 MaxDP=2.08D-08 DE=-3.07D-12 OVMax= 1.90D-08

 SCF Done:  E(UB3LYP) =  -150.320042076     A.U. after    7 cycles
             Convg  =    0.1986D-08             -V/T =  2.0082
 <Sx>= 0.0000 <Sy>= 0.0000 <Sz>= 1.0000 <S**2>= 2.0066 S= 1.0022
 <L.S>= 0.000000000000E+00
 KE= 1.490971037287D+02 PE=-4.105972194359D+02 EE= 8.329637543676D+01
 Annihilation of the first spin contaminant:
 S**2 before annihilation     2.0066,   after     2.0000
 Leave Link  502 at Wed Apr  1 00:09:04 2015, MaxMem= 3758096384 cpu:       4.3
 (Enter /share/apps/g09/l701.exe)
 Compute integral first derivatives.
 ... and contract with generalized density number  0.
 Leave Link  701 at Wed Apr  1 00:09:05 2015, MaxMem= 3758096384 cpu:       5.8
 (Enter /share/apps/g09/l702.exe)
 L702 exits ... SP integral derivatives will be done elsewhere.
 Leave Link  702 at Wed Apr  1 00:09:05 2015, MaxMem= 3758096384 cpu:       0.2
 (Enter /share/apps/g09/l703.exe)
 Compute integral first derivatives, UseDBF=F ICtDFT=           0.
 Integral derivatives from FoFDir, PRISM(SPDF).
 Calling FoFJK, ICntrl=      2127 FMM=F ISym2X=1 I1Cent= 0 IOpClX= 1 NMat=1 NMatS=1 NMatT=0.
 FoFCou: FMM=F IPFlag=           0 FMFlag=      100000 FMFlg1=         800
         NFxFlg=           0 DoJE=F BraDBF=F KetDBF=F FulRan=T
         Omega=  0.000000  0.000000  1.000000  0.000000  0.000000 ICntrl=    2127 IOpCl=  1
         NMat0=    1 NMatS0=    1 NMatT0=    0 NMatD0=    1 NMtDS0=    0 NMtDT0=    0
         I1Cent=           0 NGrid=           0.
 Petite list used in FoFCou.
 Leave Link  703 at Wed Apr  1 00:09:05 2015, MaxMem= 3758096384 cpu:       4.3
 (Enter /share/apps/g09/l716.exe)
 Dipole        =-2.56379794D-30-1.92592994D-34 0.00000000D+00
 ***** Axes restored to original set *****
 -------------------------------------------------------------------
 Center     Atomic                   Forces (Hartrees/Bohr)
 Number     Number              X              Y              Z
 -------------------------------------------------------------------
      1        8          -0.000107191    0.000000000    0.000000000
      2        8           0.000107191    0.000000000    0.000000000
 -------------------------------------------------------------------
 Cartesian Forces:  Max     0.000107191 RMS     0.000061887
 Leave Link  716 at Wed Apr  1 00:09:06 2015, MaxMem= 3758096384 cpu:       0.2
 (Enter /share/apps/g09/l103.exe)

 GradGradGradGradGradGradGradGradGradGradGradGradGradGradGradGradGradGrad
 Berny optimization.
 Using GEDIIS/GDIIS optimizer.
 Internal  Forces:  Max     0.000107191 RMS     0.000107191
 Search for a local minimum.
 Step number   3 out of a maximum of   20
 All quantities printed in internal units (Hartrees-Bohrs-Radians)
 RMS Force = .10719D-03 SwitMx=.10000D-02 MixMth= 2
 Mixed Optimization -- En-DIIS/RFO-DIIS
 Update second derivatives using D2CorX and points    2    3
 DE= -1.85D-04 DEPred=-1.48D-04 R= 1.25D+00
 SS=  1.41D+00  RLast= 2.09D-02 DXNew= 5.0454D-01 6.2831D-02
 Trust test= 1.25D+00 RLast= 2.09D-02 DXMaxT set to 3.00D-01
 The second derivative matrix:
                          R1
           R1           0.86662
 Use linear search instead of GDIIS.
     Eigenvalues ---    0.86662
 RFO step:  Lambda= 0.00000000D+00 EMin= 8.66616941D-01
 Quartic linear search produced a step of -0.00615.
 Iteration  1 RMS(Cart)=  0.00009101 RMS(Int)=  0.00000000
 Iteration  2 RMS(Cart)=  0.00000000 RMS(Int)=  0.00000000
 ClnCor:  largest displacement from symmetrization is 3.94D-21 for atom     1.
 Variable       Old X    -DE/DX   Delta X   Delta X   Delta X     New X
                                 (Linear)    (Quad)   (Total)
    R1        2.29525  -0.00011  -0.00013   0.00000  -0.00013   2.29512
         Item               Value     Threshold  Converged?
 Maximum Force            0.000107     0.000450     YES
 RMS     Force            0.000107     0.000300     YES
 Maximum Displacement     0.000064     0.001800     YES
 RMS     Displacement     0.000091     0.001200     YES
 Predicted change in Energy=-6.618258D-09
 Optimization completed.
    -- Stationary point found.
                           ----------------------------
                           !   Optimized Parameters   !
                           ! (Angstroms and Degrees)  !
 --------------------------                            --------------------------
 ! Name  Definition              Value          Derivative Info.                !
 --------------------------------------------------------------------------------
 ! R1    R(1,2)                  1.2146         -DE/DX =   -0.0001              !
 --------------------------------------------------------------------------------
 GradGradGradGradGradGradGradGradGradGradGradGradGradGradGradGradGradGrad

 Largest change from initial coordinates is atom    1       0.026 Angstoms.
 Leave Link  103 at Wed Apr  1 00:09:06 2015, MaxMem= 3758096384 cpu:       1.5
 (Enter /share/apps/g09/l202.exe)
                          Input orientation:                          
 ---------------------------------------------------------------------
 Center     Atomic      Atomic             Coordinates (Angstroms)
 Number     Number       Type             X           Y           Z
 ---------------------------------------------------------------------
      1          8           0       -1.363306    0.197368    0.000000
      2          8           0       -2.577899    0.197368    0.000000
 ---------------------------------------------------------------------
 Stoichiometry    O2(3)
 Framework group  D*H[C*(O.O)]
 Deg. of freedom     1
 Full point group                 D*H     NOp   8
 Largest Abelian subgroup         D2H     NOp   8
 Largest concise Abelian subgroup C2      NOp   2
                         Standard orientation:                         
 ---------------------------------------------------------------------
 Center     Atomic      Atomic             Coordinates (Angstroms)
 Number     Number       Type             X           Y           Z
 ---------------------------------------------------------------------
      1          8           0        0.000000    0.000000    0.607296
      2          8           0        0.000000    0.000000   -0.607296
 ---------------------------------------------------------------------
 Rotational constants (GHZ):      0.0000000     42.8354962     42.8354962
 Leave Link  202 at Wed Apr  1 00:09:06 2015, MaxMem= 3758096384 cpu:       0.4
 (Enter /share/apps/g09/l601.exe)
 Copying SCF densities to generalized density rwf, IOpCl= 1 IROHF=0.

 **********************************************************************

            Population analysis using the SCF density.

 **********************************************************************

 Orbital symmetries:
 Alpha Orbitals:
       Occupied  (SGG) (SGU) (SGG) (SGU) (PIU) (PIU) (SGG) (PIG)
                 (PIG)
       Virtual   (SGU) (SGG) (SGU) (PIU) (PIU) (SGG) (PIG) (PIG)
                 (SGU) (PIU) (PIU) (DLTG) (DLTG) (DLTU) (DLTU)
                 (SGG) (PIG) (PIG) (SGU) (SGG) (SGU)
 Beta  Orbitals:
       Occupied  (SGG) (SGU) (SGG) (SGU) (SGG) (PIU) (PIU)
       Virtual   (PIG) (PIG) (SGU) (SGG) (SGU) (PIU) (PIU) (SGG)
                 (PIG) (PIG) (SGU) (PIU) (PIU) (DLTG) (DLTG) (DLTU)
                 (DLTU) (SGG) (PIG) (PIG) (SGU) (SGG) (SGU)
 The electronic state is 3-SGG.
 Alpha  occ. eigenvalues --  -19.31227 -19.31210  -1.30178  -0.83800  -0.55938
 Alpha  occ. eigenvalues --   -0.55938  -0.54741  -0.30817  -0.30817
 Alpha virt. eigenvalues --    0.19636   0.66955   0.70863   0.77677   0.77677
 Alpha virt. eigenvalues --    0.85639   0.89570   0.89570   1.27388   1.48635
 Alpha virt. eigenvalues --    1.48635   1.51349   1.51350   1.89292   1.89293
 Alpha virt. eigenvalues --    2.39860   2.53519   2.53519   2.79546   3.15411
 Alpha virt. eigenvalues --    3.48734
  Beta  occ. eigenvalues --  -19.28295 -19.28265  -1.24387  -0.74933  -0.50776
  Beta  occ. eigenvalues --   -0.45693  -0.45693
  Beta virt. eigenvalues --   -0.11278  -0.11278   0.24060   0.68830   0.72644
  Beta virt. eigenvalues --    0.83244   0.83244   0.86824   0.95366   0.95366
  Beta virt. eigenvalues --    1.30133   1.51966   1.51966   1.56923   1.56924
  Beta virt. eigenvalues --    1.96453   1.96454   2.43474   2.57751   2.57751
  Beta virt. eigenvalues --    2.82090   3.19826   3.53194
          Condensed to atoms (all electrons):
              1          2
     1  O    7.881503   0.118497
     2  O    0.118497   7.881503
 Mulliken atomic charges:
              1
     1  O    0.000000
     2  O    0.000000
 Sum of Mulliken atomic charges =   0.00000
 Mulliken charges with hydrogens summed into heavy atoms:
              1
     1  O    0.000000
     2  O    0.000000
 Sum of Mulliken charges with hydrogens summed into heavy atoms =   0.00000
          Atomic-Atomic Spin Densities.
              1          2
     1  O    1.326251  -0.326251
     2  O   -0.326251   1.326251
 Mulliken atomic spin densities:
              1
     1  O    1.000000
     2  O    1.000000
 Sum of Mulliken atomic spin densities =   2.00000
 Electronic spatial extent (au):  <R**2>=             43.2796
 Charge=              0.0000 electrons
 Dipole moment (field-independent basis, Debye):
    X=              0.0000    Y=              0.0000    Z=              0.0000  Tot=              0.0000
 Quadrupole moment (field-independent basis, Debye-Ang):
   XX=             -9.8035   YY=             -9.8035   ZZ=            -10.2621
   XY=              0.0000   XZ=              0.0000   YZ=              0.0000
 Traceless Quadrupole moment (field-independent basis, Debye-Ang):
   XX=              0.1529   YY=              0.1529   ZZ=             -0.3057
   XY=              0.0000   XZ=              0.0000   YZ=              0.0000
 Octapole moment (field-independent basis, Debye-Ang**2):
  XXX=              0.0000  YYY=              0.0000  ZZZ=              0.0000  XYY=              0.0000
  XXY=              0.0000  XXZ=              0.0000  XZZ=              0.0000  YZZ=              0.0000
  YYZ=              0.0000  XYZ=              0.0000
 Hexadecapole moment (field-independent basis, Debye-Ang**3):
 XXXX=             -6.4119 YYYY=             -6.4119 ZZZZ=            -27.7459 XXXY=              0.0000
 XXXZ=              0.0000 YYYX=              0.0000 YYYZ=              0.0000 ZZZX=              0.0000
 ZZZY=              0.0000 XXYY=             -2.1373 XXZZ=             -5.9171 YYZZ=             -5.9171
 XXYZ=              0.0000 YYXZ=              0.0000 ZZXY=              0.0000
 N-N= 2.788369819481D+01 E-N=-6.026287056597D+02  KE= 2.202941341466D+02
 Symmetry AG   KE= 1.037805155922D+02
 Symmetry B1G  KE= 2.263097126032D-34
 Symmetry B2G  KE= 3.040402998513D+00
 Symmetry B3G  KE= 3.040402998513D+00
 Symmetry AU   KE= 5.592592466699D-34
 Symmetry B1U  KE= 9.705147866433D+01
 Symmetry B2U  KE= 6.690666946494D+00
 Symmetry B3U  KE= 6.690666946494D+00
                          Isotropic Fermi Contact Couplings
        Atom                 a.u.       MegaHertz       Gauss      10(-4) cm-1
     1  O(17)              0.13947     -42.27422     -15.08449     -14.10116
     2  O(17)              0.13947     -42.27422     -15.08449     -14.10116
 --------------------------------------------------------
       Center         ----  Spin Dipole Couplings  ----
                      3XX-RR        3YY-RR        3ZZ-RR
 --------------------------------------------------------
     1   Atom        1.156582      1.156582     -2.313165
     2   Atom        1.156582      1.156582     -2.313165
 --------------------------------------------------------
                        XY            XZ            YZ
 --------------------------------------------------------
     1   Atom        0.000000      0.000000      0.000000
     2   Atom        0.000000      0.000000      0.000000
 --------------------------------------------------------


 ---------------------------------------------------------------------------------
              Anisotropic Spin Dipole Couplings in Principal Axis System
 ---------------------------------------------------------------------------------

       Atom             a.u.   MegaHertz   Gauss  10(-4) cm-1        Axes

              Baa    -2.3132   167.379    59.725    55.832  0.0000  0.0000  1.0000
     1 O(17)  Bbb     1.1566   -83.689   -29.862   -27.916  0.0026  1.0000  0.0000
              Bcc     1.1566   -83.689   -29.862   -27.916  1.0000 -0.0026  0.0000
 
              Baa    -2.3132   167.379    59.725    55.832  0.0000  0.0000  1.0000
     2 O(17)  Bbb     1.1566   -83.689   -29.862   -27.916 -0.0026  1.0000  0.0000
              Bcc     1.1566   -83.689   -29.862   -27.916  1.0000  0.0026  0.0000
 

 ---------------------------------------------------------------------------------

 No NMR shielding tensors so no spin-rotation constants.
 Leave Link  601 at Wed Apr  1 00:09:07 2015, MaxMem= 3758096384 cpu:       8.1
 (Enter /share/apps/g09/l9999.exe)
 1\1\GINC-COMPUTE-0-14\FOpt\UB3LYP\6-31G(d)\O2(3)\HETANJIN\01-Apr-2015\
 0\\#p opt freq ub3lyp/6-31g(d)\\RO2_3_2_opt_ub3631gd using cbs-qb3 to 
 calculate energy\\0,3\O,-1.363306189,0.19736842,0.\O,-2.577899071,0.19
 736842,0.\\Version=EM64L-G09RevA.01\State=3-SGG\HF=-150.3200421\S2=2.0
 06605\S2-1=0.\S2A=2.000023\RMSD=1.986e-09\RMSF=6.189e-05\Dipole=0.,0.,
 0.\Quadrupole=-0.2272832,0.1136416,0.1136416,0.,0.,0.\PG=D*H [C*(O1.O1
 )]\\@


 Happiness is a conscious choice, not an automatic response.
 -- Mildred Barthel
 Leave Link 9999 at Wed Apr  1 00:09:07 2015, MaxMem= 3758096384 cpu:       0.4
 Job cpu time:  0 days  0 hours  2 minutes 37.2 seconds.
 File lengths (MBytes):  RWF=      5 Int=      0 D2E=      0 Chk=      2 Scr=      1
 Normal termination of Gaussian 09 at Wed Apr  1 00:09:07 2015.
 (Enter /share/apps/g09/l1.exe)
 Link1:  Proceeding to internal job step number  2.
 --------------------------------------------------------------------
 #P Geom=AllCheck Guess=TCheck SCRF=Check GenChk UB3LYP/6-31G(d) Freq
 --------------------------------------------------------------------
 1/10=4,29=7,30=1,38=1,40=1/1,3;
 2/12=2,40=1/2;
 3/5=1,6=6,7=1,11=2,14=-4,16=1,25=1,30=1,70=2,71=2,74=-5,116=2/1,2,3;
 4/5=101/1;
 5/5=2,98=1/2;
 8/6=4,10=90,11=11/1;
 11/6=1,8=1,9=11,15=111,16=1/1,2,10;
 10/6=1/2;
 6/7=2,8=2,9=2,10=2,18=1,28=1/1;
 7/8=1,10=1,25=1/1,2,3,16;
 1/10=4,30=1/3;
 99//99;
 Leave Link    1 at Wed Apr  1 00:09:07 2015, MaxMem= 3758096384 cpu:       0.4
 (Enter /share/apps/g09/l101.exe)
 ------------------------------------------------------
 RO2_3_2_opt_ub3631gd using cbs-qb3 to calculate energy
 ------------------------------------------------------
 Redundant internal coordinates taken from checkpoint file:
 O2_31_b3631gd.chk
 Charge =  0 Multiplicity = 3
 O,0,-1.363306189,0.19736842,0.
 O,0,-2.577899071,0.19736842,0.
 Recover connectivity data from disk.
                    Isotopes and Nuclear Properties:
 (Nuclear quadrupole moments (NQMom) in fm**2, nuclear magnetic moments (NMagM)
  in nuclear magnetons)

  Atom         1           2
 IAtWgt=          16          16
 AtmWgt=  15.9949146  15.9949146
 NucSpn=           0           0
 AtZEff=  -5.6000000  -5.6000000
 NQMom=    0.0000000   0.0000000
 NMagM=    0.0000000   0.0000000
 Leave Link  101 at Wed Apr  1 00:09:07 2015, MaxMem= 3758096384 cpu:       0.6
 (Enter /share/apps/g09/l103.exe)

 GradGradGradGradGradGradGradGradGradGradGradGradGradGradGradGradGradGrad
 Berny optimization.
 Initialization pass.
                           ----------------------------
                           !    Initial Parameters    !
                           ! (Angstroms and Degrees)  !
 --------------------------                            --------------------------
 ! Name  Definition              Value          Derivative Info.                !
 --------------------------------------------------------------------------------
 ! R1    R(1,2)                  1.2146         calculate D2E/DX2 analytically  !
 --------------------------------------------------------------------------------
 Trust Radius=3.00D-01 FncErr=1.00D-07 GrdErr=1.00D-07
 Number of steps in this run=   2 maximum allowed number of steps=   2.
 GradGradGradGradGradGradGradGradGradGradGradGradGradGradGradGradGradGrad

 Leave Link  103 at Wed Apr  1 00:09:07 2015, MaxMem= 3758096384 cpu:       0.1
 (Enter /share/apps/g09/l202.exe)
                          Input orientation:                          
 ---------------------------------------------------------------------
 Center     Atomic      Atomic             Coordinates (Angstroms)
 Number     Number       Type             X           Y           Z
 ---------------------------------------------------------------------
      1          8           0       -1.363306    0.197368    0.000000
      2          8           0       -2.577899    0.197368    0.000000
 ---------------------------------------------------------------------
 Stoichiometry    O2(3)
 Framework group  D*H[C*(O.O)]
 Deg. of freedom     1
 Full point group                 D*H     NOp   8
 Largest Abelian subgroup         D2H     NOp   8
 Largest concise Abelian subgroup C2      NOp   2
                         Standard orientation:                         
 ---------------------------------------------------------------------
 Center     Atomic      Atomic             Coordinates (Angstroms)
 Number     Number       Type             X           Y           Z
 ---------------------------------------------------------------------
      1          8           0        0.000000    0.000000    0.607296
      2          8           0        0.000000    0.000000   -0.607296
 ---------------------------------------------------------------------
 Rotational constants (GHZ):      0.0000000     42.8354962     42.8354962
 Leave Link  202 at Wed Apr  1 00:09:07 2015, MaxMem= 3758096384 cpu:       0.4
 (Enter /share/apps/g09/l301.exe)
 Standard basis: 6-31G(d) (6D, 7F)
 Ernie: Thresh=  0.10000D-02 Tol=  0.10000D-05 Strict=F.
 There are     8 symmetry adapted basis functions of AG  symmetry.
 There are     1 symmetry adapted basis functions of B1G symmetry.
 There are     3 symmetry adapted basis functions of B2G symmetry.
 There are     3 symmetry adapted basis functions of B3G symmetry.
 There are     1 symmetry adapted basis functions of AU  symmetry.
 There are     8 symmetry adapted basis functions of B1U symmetry.
 There are     3 symmetry adapted basis functions of B2U symmetry.
 There are     3 symmetry adapted basis functions of B3U symmetry.
 Integral buffers will be    131072 words long.
 Raffenetti 2 integral format.
 Two-electron integral symmetry is turned on.
    30 basis functions,    56 primitive gaussians,    30 cartesian basis functions
     9 alpha electrons        7 beta electrons
       nuclear repulsion energy        27.8836981948 Hartrees.
 IExCor=  402 DFT=T Ex+Corr=B3LYP ExCW=0 ScaHFX=  0.200000
 ScaDFX=  0.800000  0.720000  1.000000  0.810000 ScalE2=  1.000000  1.000000
 IRadAn=      0 IRanWt=     -1 IRanGd=            0 ICorTp=0
 NAtoms=    2 NActive=    2 NUniq=    1 SFac= 3.00D+00 NAtFMM=   80 NAOKFM=F Big=F
 Leave Link  301 at Wed Apr  1 00:09:07 2015, MaxMem= 3758096384 cpu:       0.4
 (Enter /share/apps/g09/l302.exe)
 NPDir=0 NMtPBC=     1 NCelOv=     1 NCel=       1 NClECP=     1 NCelD=      1
         NCelK=      1 NCelE2=     1 NClLst=     1 CellRange=     0.0.
 One-electron integrals computed using PRISM.
 One-electron integral symmetry used in STVInt
 NBasis=    30 RedAO= T  NBF=     8     1     3     3     1     8     3     3
 NBsUse=    30 1.00D-06 NBFU=     8     1     3     3     1     8     3     3
 Precomputing XC quadrature grid using
 IXCGrd= 2 IRadAn=           0 IRanWt=          -1 IRanGd=           0 AccXCQ= 1.00D-10.
 NRdTot=     122 NPtTot=       15216 NUsed=       16109 NTot=       16141
 NSgBfM=    30    30    30    30    30 NAtAll=     2     2.
 Leave Link  302 at Wed Apr  1 00:09:08 2015, MaxMem= 3758096384 cpu:       4.3
 (Enter /share/apps/g09/l303.exe)
 DipDrv:  MaxL=1.
 Leave Link  303 at Wed Apr  1 00:09:08 2015, MaxMem= 3758096384 cpu:       1.0
 (Enter /share/apps/g09/l401.exe)
 Initial guess read from the checkpoint file:  O2_31_b3631gd.chk
 B after Tr=     0.000000    0.000000    0.000000
         Rot=    1.000000    0.000000    0.000000    0.000000 Ang=   0.00 deg.
 Guess basis will be translated and rotated to current coordinates.
 Initial guess orbital symmetries:
 Alpha Orbitals:
       Occupied  (SGG) (SGU) (SGG) (SGU) (PIU) (PIU) (SGG) (PIG)
                 (PIG)
       Virtual   (SGU) (SGG) (SGU) (PIU) (PIU) (SGG) (PIG) (PIG)
                 (SGU) (PIU) (PIU) (DLTG) (DLTG) (DLTU) (DLTU)
                 (SGG) (PIG) (PIG) (SGU) (SGG) (SGU)
 Beta  Orbitals:
       Occupied  (SGG) (SGU) (SGG) (SGU) (SGG) (PIU) (PIU)
       Virtual   (PIG) (PIG) (SGU) (SGG) (SGU) (PIU) (PIU) (SGG)
                 (PIG) (PIG) (SGU) (PIU) (PIU) (DLTG) (DLTG) (DLTU)
                 (DLTU) (SGG) (PIG) (PIG) (SGU) (SGG) (SGU)
 The electronic state of the initial guess is 3-SGG.
 Initial guess <Sx>= 0.0000 <Sy>= 0.0000 <Sz>= 1.0000 <S**2>= 2.0066 S= 1.0022
 Leave Link  401 at Wed Apr  1 00:09:08 2015, MaxMem= 3758096384 cpu:       0.9
 (Enter /share/apps/g09/l502.exe)
 UHF open shell SCF:
 Requested convergence on RMS density matrix=1.00D-08 within 128 cycles.
 Requested convergence on MAX density matrix=1.00D-06.
 Requested convergence on             energy=1.00D-06.
 No special actions if energy rises.
 Using DIIS extrapolation, IDIIS=  1040.
 Integral symmetry usage will be decided dynamically.
        16078 words used for storage of precomputed grid.
 Keep R1 and R2 ints in memory in canonical form, NReq=1112841.
 IEnd=       37592 IEndB=       37592 NGot=  3758096384 MDV=  3757859645
 LenX=  3757859645 LenY=  3757858304
 Symmetry not used in FoFDir.
 MinBra= 0 MaxBra= 2 Meth= 1.
 IRaf=       0 NMat=   1 IRICut=       1 DoRegI=T DoRafI=F ISym2E= 0 JSym2E=0.

 Cycle   1  Pass 1  IDiag  1:
 E= -150.320042075658    
 DIIS: error= 7.77D-10 at cycle   1 NSaved=   1.
 NSaved= 1 IEnMin= 1 EnMin= -150.320042075658     IErMin= 1 ErrMin= 7.77D-10
 ErrMax= 7.77D-10 EMaxC= 1.00D-01 BMatC= 2.22D-17 BMatP= 2.22D-17
 IDIUse=1 WtCom= 1.00D+00 WtEn= 0.00D+00
 Coeff-Com:  0.100D+01
 Coeff:      0.100D+01
 Gap=     0.505 Goal=   None    Shift=    0.000
 Gap=     0.344 Goal=   None    Shift=    0.000
 RMSDP=1.09D-10 MaxDP=8.28D-10              OVMax= 1.11D-09

 SCF Done:  E(UB3LYP) =  -150.320042076     A.U. after    1 cycles
             Convg  =    0.1090D-09             -V/T =  2.0082
 <Sx>= 0.0000 <Sy>= 0.0000 <Sz>= 1.0000 <S**2>= 2.0066 S= 1.0022
 <L.S>= 0.000000000000E+00
 KE= 1.490971037375D+02 PE=-4.105972194278D+02 EE= 8.329637541984D+01
 Annihilation of the first spin contaminant:
 S**2 before annihilation     2.0066,   after     2.0000
 Leave Link  502 at Wed Apr  1 00:09:09 2015, MaxMem= 3758096384 cpu:       5.6
 (Enter /share/apps/g09/l801.exe)
 Range of M.O.s used for correlation:     1    30
 NBasis=    30 NAE=     9 NBE=     7 NFC=     0 NFV=     0
 NROrb=     30 NOA=     9 NOB=     7 NVA=    21 NVB=    23
 Leave Link  801 at Wed Apr  1 00:09:09 2015, MaxMem= 3758096384 cpu:       0.2
 (Enter /share/apps/g09/l1101.exe)
 Using compressed storage, NAtomX=     2.
 Will process   3 centers per pass.
 Leave Link 1101 at Wed Apr  1 00:09:10 2015, MaxMem= 3758096384 cpu:       5.9
 (Enter /share/apps/g09/l1102.exe)
 Symmetrizing basis deriv contribution to polar:
 IMax=3 JMax=2 DiffMx= 0.00D+00
 Leave Link 1102 at Wed Apr  1 00:09:10 2015, MaxMem= 3758096384 cpu:       0.5
 (Enter /share/apps/g09/l1110.exe)
 Forming Gx(P) for the SCF density, NAtomX=     2.
 Integral derivatives from FoFDir/FoFCou, PRISM(SPDF).
 Do as many integral derivatives as possible in FoFDir.
 G2DrvN: MDV=    3758096264.
 G2DrvN: will do     3 centers at a time, making    1 passes doing MaxLOS=2.
 Calling FoFCou, ICntrl=  3107 FMM=F I1Cent=   0 AccDes= 0.00D+00.
 FoFCou: FMM=F IPFlag=           0 FMFlag=      100000 FMFlg1=           0
         NFxFlg=           0 DoJE=F BraDBF=F KetDBF=F FulRan=T
         Omega=  0.000000  0.000000  1.000000  0.000000  0.000000 ICntrl=    3107 IOpCl=  1
         NMat0=    1 NMatS0=    1 NMatT0=    0 NMatD0=    1 NMtDS0=    0 NMtDT0=    0
         I1Cent=           0 NGrid=           0.
 Petite list used in FoFCou.
 FoFDir/FoFCou used for L=0 through L=2.
 End of G2Drv Frequency-dependent properties file   721 does not exist.
 End of G2Drv Frequency-dependent properties file   722 does not exist.
 Leave Link 1110 at Wed Apr  1 00:09:11 2015, MaxMem= 3758096384 cpu:       6.9
 (Enter /share/apps/g09/l1002.exe)
 Minotr:  UHF open shell wavefunction.
          IDoAtm=11
          Direct CPHF calculation.
          Differentiating once with respect to electric field.
                with respect to dipole field.
          Differentiating once with respect to nuclear coordinates.
          Using symmetry in CPHF.
          Requested convergence is 1.0D-08 RMS, and 1.0D-07 maximum.
          Secondary convergence is 1.0D-12 RMS, and 1.0D-12 maximum.
          NewPWx=T KeepS1=F KeepF1=F KeepIn=T MapXYZ=F SortEE=F KeepMc=T.
          MDV=    3758096360 using IRadAn=       2.
 Generate precomputed XC quadrature information.
          Keep R1 and R2 ints in memory in canonical form, NReq=1037867.
 Symmetry not used in FoFDir.
 MinBra= 0 MaxBra= 2 Meth= 1.
 IRaf=       0 NMat=   1 IRICut=       1 DoRegI=T DoRafI=F ISym2E= 0 JSym2E=0.
          Solving linear equations simultaneously, MaxMat=       0.
          There are     6 degrees of freedom in the 1st order CPHF.  IDoFFX=4.
      6 vectors produced by pass  0 Test12= 5.83D-15 1.67D-08 XBig12= 2.75D+01 3.34D+00.
 AX will form     6 AO Fock derivatives at one time.
      6 vectors produced by pass  1 Test12= 5.83D-15 1.67D-08 XBig12= 1.51D+01 1.44D+00.
      6 vectors produced by pass  2 Test12= 5.83D-15 1.67D-08 XBig12= 8.12D-01 4.70D-01.
      6 vectors produced by pass  3 Test12= 5.83D-15 1.67D-08 XBig12= 2.33D-02 5.88D-02.
      6 vectors produced by pass  4 Test12= 5.83D-15 1.67D-08 XBig12= 3.18D-04 9.59D-03.
      6 vectors produced by pass  5 Test12= 5.83D-15 1.67D-08 XBig12= 8.94D-06 2.07D-03.
      6 vectors produced by pass  6 Test12= 5.83D-15 1.67D-08 XBig12= 2.10D-08 6.62D-05.
      2 vectors produced by pass  7 Test12= 5.83D-15 1.67D-08 XBig12= 4.02D-11 2.82D-06.
      1 vectors produced by pass  8 Test12= 5.83D-15 1.67D-08 XBig12= 1.38D-13 1.34D-07.
 Inverted reduced A of dimension    45 with in-core refinement.
 FullF1:  Do perturbations    1 to     6.
 Isotropic polarizability for W=    0.000000        6.96 Bohr**3.
 End of Minotr Frequency-dependent properties file   721 does not exist.
 End of Minotr Frequency-dependent properties file   722 does not exist.
 Leave Link 1002 at Wed Apr  1 00:09:12 2015, MaxMem= 3758096384 cpu:      15.7
 (Enter /share/apps/g09/l601.exe)
 Copying SCF densities to generalized density rwf, IOpCl= 1 IROHF=0.

 **********************************************************************

            Population analysis using the SCF density.

 **********************************************************************

 Orbital symmetries:
 Alpha Orbitals:
       Occupied  (SGG) (SGU) (SGG) (SGU) (PIU) (PIU) (SGG) (PIG)
                 (PIG)
       Virtual   (SGU) (SGG) (SGU) (PIU) (PIU) (SGG) (PIG) (PIG)
                 (SGU) (PIU) (PIU) (DLTG) (DLTG) (DLTU) (DLTU)
                 (SGG) (PIG) (PIG) (SGU) (SGG) (SGU)
 Beta  Orbitals:
       Occupied  (SGG) (SGU) (SGG) (SGU) (SGG) (PIU) (PIU)
       Virtual   (PIG) (PIG) (SGU) (SGG) (SGU) (PIU) (PIU) (SGG)
                 (PIG) (PIG) (SGU) (PIU) (PIU) (DLTG) (DLTG) (DLTU)
                 (DLTU) (SGG) (PIG) (PIG) (SGU) (SGG) (SGU)
 The electronic state is 3-SGG.
 Alpha  occ. eigenvalues --  -19.31227 -19.31210  -1.30178  -0.83800  -0.55938
 Alpha  occ. eigenvalues --   -0.55938  -0.54741  -0.30817  -0.30817
 Alpha virt. eigenvalues --    0.19636   0.66955   0.70863   0.77677   0.77677
 Alpha virt. eigenvalues --    0.85639   0.89570   0.89570   1.27388   1.48635
 Alpha virt. eigenvalues --    1.48635   1.51349   1.51350   1.89292   1.89293
 Alpha virt. eigenvalues --    2.39860   2.53519   2.53519   2.79546   3.15411
 Alpha virt. eigenvalues --    3.48734
  Beta  occ. eigenvalues --  -19.28295 -19.28265  -1.24387  -0.74933  -0.50776
  Beta  occ. eigenvalues --   -0.45693  -0.45693
  Beta virt. eigenvalues --   -0.11278  -0.11278   0.24060   0.68830   0.72644
  Beta virt. eigenvalues --    0.83244   0.83244   0.86824   0.95366   0.95366
  Beta virt. eigenvalues --    1.30133   1.51966   1.51966   1.56923   1.56924
  Beta virt. eigenvalues --    1.96453   1.96454   2.43474   2.57751   2.57751
  Beta virt. eigenvalues --    2.82090   3.19826   3.53194
          Condensed to atoms (all electrons):
              1          2
     1  O    7.881503   0.118497
     2  O    0.118497   7.881503
 Mulliken atomic charges:
              1
     1  O    0.000000
     2  O    0.000000
 Sum of Mulliken atomic charges =   0.00000
 Mulliken charges with hydrogens summed into heavy atoms:
              1
     1  O    0.000000
     2  O    0.000000
 Sum of Mulliken charges with hydrogens summed into heavy atoms =   0.00000
          Atomic-Atomic Spin Densities.
              1          2
     1  O    1.326251  -0.326251
     2  O   -0.326251   1.326251
 Mulliken atomic spin densities:
              1
     1  O    1.000000
     2  O    1.000000
 Sum of Mulliken atomic spin densities =   2.00000
 APT atomic charges:
              1
     1  O    0.000000
     2  O    0.000000
 Sum of APT charges=   0.00000
 APT Atomic charges with hydrogens summed into heavy atoms:
              1
     1  O    0.000000
     2  O    0.000000
 Sum of APT charges=   0.00000
 Electronic spatial extent (au):  <R**2>=             43.2796
 Charge=              0.0000 electrons
 Dipole moment (field-independent basis, Debye):
    X=              0.0000    Y=              0.0000    Z=              0.0000  Tot=              0.0000
 Quadrupole moment (field-independent basis, Debye-Ang):
   XX=             -9.8035   YY=             -9.8035   ZZ=            -10.2621
   XY=              0.0000   XZ=              0.0000   YZ=              0.0000
 Traceless Quadrupole moment (field-independent basis, Debye-Ang):
   XX=              0.1529   YY=              0.1529   ZZ=             -0.3057
   XY=              0.0000   XZ=              0.0000   YZ=              0.0000
 Octapole moment (field-independent basis, Debye-Ang**2):
  XXX=              0.0000  YYY=              0.0000  ZZZ=              0.0000  XYY=              0.0000
  XXY=              0.0000  XXZ=              0.0000  XZZ=              0.0000  YZZ=              0.0000
  YYZ=              0.0000  XYZ=              0.0000
 Hexadecapole moment (field-independent basis, Debye-Ang**3):
 XXXX=             -6.4119 YYYY=             -6.4119 ZZZZ=            -27.7459 XXXY=              0.0000
 XXXZ=              0.0000 YYYX=              0.0000 YYYZ=              0.0000 ZZZX=              0.0000
 ZZZY=              0.0000 XXYY=             -2.1373 XXZZ=             -5.9171 YYZZ=             -5.9171
 XXYZ=              0.0000 YYXZ=              0.0000 ZZXY=              0.0000
 N-N= 2.788369819481D+01 E-N=-6.026287056794D+02  KE= 2.202941341577D+02
 Symmetry AG   KE= 1.037805155925D+02
 Symmetry B1G  KE= 2.263097126806D-34
 Symmetry B2G  KE= 3.040402998820D+00
 Symmetry B3G  KE= 3.040402998820D+00
 Symmetry AU   KE= 5.592592464277D-34
 Symmetry B1U  KE= 9.705147866585D+01
 Symmetry B2U  KE= 6.690666950875D+00
 Symmetry B3U  KE= 6.690666950875D+00
  Exact polarizability:   4.226   0.000   4.226   0.000   0.000  12.423
 Approx polarizability:   5.308   0.000   5.308   0.000   0.000  24.260
                          Isotropic Fermi Contact Couplings
        Atom                 a.u.       MegaHertz       Gauss      10(-4) cm-1
     1  O(17)              0.13947     -42.27422     -15.08449     -14.10116
     2  O(17)              0.13947     -42.27422     -15.08449     -14.10116
 --------------------------------------------------------
       Center         ----  Spin Dipole Couplings  ----
                      3XX-RR        3YY-RR        3ZZ-RR
 --------------------------------------------------------
     1   Atom        1.156582      1.156582     -2.313165
     2   Atom        1.156582      1.156582     -2.313165
 --------------------------------------------------------
                        XY            XZ            YZ
 --------------------------------------------------------
     1   Atom        0.000000      0.000000      0.000000
     2   Atom        0.000000      0.000000      0.000000
 --------------------------------------------------------


 ---------------------------------------------------------------------------------
              Anisotropic Spin Dipole Couplings in Principal Axis System
 ---------------------------------------------------------------------------------

       Atom             a.u.   MegaHertz   Gauss  10(-4) cm-1        Axes

              Baa    -2.3132   167.379    59.725    55.832  0.0000  0.0000  1.0000
     1 O(17)  Bbb     1.1566   -83.689   -29.862   -27.916  0.0018  1.0000  0.0000
              Bcc     1.1566   -83.689   -29.862   -27.916  1.0000 -0.0018  0.0000
 
              Baa    -2.3132   167.379    59.725    55.832  0.0000  0.0000  1.0000
     2 O(17)  Bbb     1.1566   -83.689   -29.862   -27.916 -0.0018  1.0000  0.0000
              Bcc     1.1566   -83.689   -29.862   -27.916  1.0000  0.0018  0.0000
 

 ---------------------------------------------------------------------------------

 No NMR shielding tensors so no spin-rotation constants.
 Leave Link  601 at Wed Apr  1 00:09:14 2015, MaxMem= 3758096384 cpu:       9.4
 (Enter /share/apps/g09/l701.exe)
 Compute integral second derivatives.
 ... and contract with generalized density number  0.
 Leave Link  701 at Wed Apr  1 00:09:14 2015, MaxMem= 3758096384 cpu:       6.2
 (Enter /share/apps/g09/l702.exe)
 L702 exits ... SP integral derivatives will be done elsewhere.
 Leave Link  702 at Wed Apr  1 00:09:14 2015, MaxMem= 3758096384 cpu:       0.2
 (Enter /share/apps/g09/l703.exe)
 Compute integral second derivatives, UseDBF=F ICtDFT=           0.
 Integral derivatives from FoFDir, PRISM(SPDF).
 Calling FoFJK, ICntrl=    100127 FMM=F ISym2X=1 I1Cent= 0 IOpClX= 1 NMat=1 NMatS=1 NMatT=0.
 FoFCou: FMM=F IPFlag=           0 FMFlag=      100000 FMFlg1=         800
         NFxFlg=           0 DoJE=F BraDBF=F KetDBF=F FulRan=T
         Omega=  0.000000  0.000000  1.000000  0.000000  0.000000 ICntrl=  100127 IOpCl=  1
         NMat0=    1 NMatS0=    1 NMatT0=    0 NMatD0=    1 NMtDS0=    0 NMtDT0=    0
         I1Cent=           0 NGrid=           0.
 Petite list used in FoFCou.
 Leave Link  703 at Wed Apr  1 00:09:16 2015, MaxMem= 3758096384 cpu:      11.2
 (Enter /share/apps/g09/l716.exe)
 Dipole        =-7.88860905D-31 0.00000000D+00 2.66366790D-15
 Polarizability= 4.22617082D+00 2.77820191D-12 4.22617082D+00
                -1.28392369D-11-2.17172048D-11 1.24231390D+01
 Full mass-weighted force constant matrix:
 Low frequencies ---   -0.0010    0.0020    0.0020   16.6182   16.6182 1658.8545
 Diagonal vibrational polarizability:
        0.0000000       0.0000000       0.0000000
 Harmonic frequencies (cm**-1), IR intensities (KM/Mole), Raman scattering
 activities (A**4/AMU), depolarization ratios for plane and unpolarized
 incident light, reduced masses (AMU), force constants (mDyne/A),
 and normal coordinates:
                     1
                    SGG
 Frequencies --  1658.8545
 Red. masses --    15.9949
 Frc consts  --    25.9328
 IR Inten    --     0.0000
  Atom  AN      X      Y      Z
     1   8     0.00   0.00   0.71
     2   8     0.00   0.00  -0.71

 -------------------
 - Thermochemistry -
 -------------------
 Temperature   298.150 Kelvin.  Pressure   1.00000 Atm.
 Atom     1 has atomic number  8 and mass  15.99491
 Atom     2 has atomic number  8 and mass  15.99491
 Molecular mass:    31.98983 amu.
 Principal axes and moments of inertia in atomic units:
                           1         2         3
     Eigenvalues --     0.00000  42.13191  42.13191
           X            0.00000   1.00000   0.00000
           Y            0.00000   0.00000   1.00000
           Z            1.00000   0.00000   0.00000
 This molecule is a prolate symmetric top.
 Rotational symmetry number  2.
 Rotational temperature (Kelvin)      2.05578
 Rotational constant (GHZ):          42.835496
 Zero-point vibrational energy       9922.2 (Joules/Mol)
                                    2.37145 (Kcal/Mol)
 Vibrational temperatures:   2386.72
          (Kelvin)
 
 Zero-point correction=                           0.003779 (Hartree/Particle)
 Thermal correction to Energy=                    0.006142
 Thermal correction to Enthalpy=                  0.007086
 Thermal correction to Gibbs Free Energy=        -0.016200
 Sum of electronic and zero-point Energies=           -150.316263
 Sum of electronic and thermal Energies=              -150.313900
 Sum of electronic and thermal Enthalpies=            -150.312956
 Sum of electronic and thermal Free Energies=         -150.336242
 
                     E (Thermal)             CV                S
                      KCal/Mol        Cal/Mol-Kelvin    Cal/Mol-Kelvin
 Total                    3.854              5.011             49.010
 Electronic               0.000              0.000              2.183
 Translational            0.889              2.981             36.321
 Rotational               0.592              1.987             10.500
 Vibrational              2.373              0.043              0.006
                       Q            Log10(Q)             Ln(Q)
 Total Bot       0.282738D+08          7.451384         17.157446
 Total V=0       0.154763D+10          9.189668         21.159993
 Vib (Bot)       0.182752D-01         -1.738139         -4.002213
 Vib (V=0)       0.100033D+01          0.000145          0.000334
 Electronic      0.300000D+01          0.477121          1.098612
 Translational   0.711169D+07          6.851973         15.777251
 Rotational      0.725152D+02          1.860429          4.283796
 ***** Axes restored to original set *****
 -------------------------------------------------------------------
 Center     Atomic                   Forces (Hartrees/Bohr)
 Number     Number              X              Y              Z
 -------------------------------------------------------------------
      1        8          -0.000107191    0.000000000    0.000000000
      2        8           0.000107191    0.000000000    0.000000000
 -------------------------------------------------------------------
 Cartesian Forces:  Max     0.000107191 RMS     0.000061887
 Force constants in Cartesian coordinates: 
                1             2             3             4             5 
      1  0.832837D+00
      2  0.000000D+00  0.835820D-04
      3  0.000000D+00  0.000000D+00  0.835820D-04
      4 -0.832837D+00  0.000000D+00  0.000000D+00  0.832837D+00
      5  0.000000D+00 -0.835820D-04  0.000000D+00  0.000000D+00  0.835820D-04
      6  0.000000D+00  0.000000D+00 -0.835820D-04  0.000000D+00  0.000000D+00
                6 
      6  0.835820D-04
 Force constants in internal coordinates: 
                1 
      1  0.832837D+00
 Leave Link  716 at Wed Apr  1 00:09:16 2015, MaxMem= 3758096384 cpu:       2.7
 (Enter /share/apps/g09/l103.exe)

 GradGradGradGradGradGradGradGradGradGradGradGradGradGradGradGradGradGrad
 Berny optimization.
 Internal  Forces:  Max     0.000107191 RMS     0.000107191
 Search for a local minimum.
 Step number   1 out of a maximum of    2
 All quantities printed in internal units (Hartrees-Bohrs-Radians)
 Second derivative matrix not updated -- analytic derivatives used.
 The second derivative matrix:
                          R1
           R1           0.83284
     Eigenvalues ---    0.83284
 Angle between quadratic step and forces=   0.00 degrees.
 Linear search not attempted -- first point.
 Iteration  1 RMS(Cart)=  0.00009101 RMS(Int)=  0.00000000
 Iteration  2 RMS(Cart)=  0.00000000 RMS(Int)=  0.00000000
 ClnCor:  largest displacement from symmetrization is 3.94D-21 for atom     1.
 Variable       Old X    -DE/DX   Delta X   Delta X   Delta X     New X
                                 (Linear)    (Quad)   (Total)
    R1        2.29525  -0.00011   0.00000  -0.00013  -0.00013   2.29512
         Item               Value     Threshold  Converged?
 Maximum Force            0.000107     0.000450     YES
 RMS     Force            0.000107     0.000300     YES
 Maximum Displacement     0.000064     0.001800     YES
 RMS     Displacement     0.000091     0.001200     YES
 Predicted change in Energy=-6.898085D-09
 Optimization completed.
    -- Stationary point found.
                           ----------------------------
                           !   Optimized Parameters   !
                           ! (Angstroms and Degrees)  !
 --------------------------                            --------------------------
 ! Name  Definition              Value          Derivative Info.                !
 --------------------------------------------------------------------------------
 ! R1    R(1,2)                  1.2146         -DE/DX =   -0.0001              !
 --------------------------------------------------------------------------------
 GradGradGradGradGradGradGradGradGradGradGradGradGradGradGradGradGradGrad

 Leave Link  103 at Wed Apr  1 00:09:16 2015, MaxMem= 3758096384 cpu:       1.4
 (Enter /share/apps/g09/l9999.exe)
 1\1\GINC-COMPUTE-0-14\Freq\UB3LYP\6-31G(d)\O2(3)\HETANJIN\01-Apr-2015\
 0\\#P Geom=AllCheck Guess=TCheck SCRF=Check GenChk UB3LYP/6-31G(d) Fre
 q\\RO2_3_2_opt_ub3631gd using cbs-qb3 to calculate energy\\0,3\O,-1.36
 3306189,0.19736842,0.\O,-2.577899071,0.19736842,0.\\Version=EM64L-G09R
 evA.01\State=3-SGG\HF=-150.3200421\S2=2.006605\S2-1=0.\S2A=2.000023\RM
 SD=1.090e-10\RMSF=6.189e-05\ZeroPoint=0.0037791\Thermal=0.0061421\Dipo
 le=0.,0.,0.\DipoleDeriv=0.,0.,0.,0.,0.,0.,0.,0.,0.,0.,0.,0.,0.,0.,0.,0
 .,0.,0.\Polar=12.423139,0.,4.2261708,0.,0.,4.2261708\PG=D*H [C*(O1.O1)
 ]\NImag=0\\0.83283691,0.,0.00008358,0.,0.,0.00008358,-0.83283691,0.,0.
 ,0.83283691,0.,-0.00008358,0.,0.,0.00008358,0.,0.,-0.00008358,0.,0.,0.
 00008358\\0.00010719,0.,0.,-0.00010719,0.,0.\\\@


 THE PROBLEM WITH THE LADDER OF SUCCESS IS YOU CAN'T
 CLIMB IT WHILE YOU'RE TWIDDLING YOUR THUMBS.
 Job cpu time:  0 days  0 hours  1 minutes 20.7 seconds.
 File lengths (MBytes):  RWF=      5 Int=      0 D2E=      0 Chk=      2 Scr=      1
 Normal termination of Gaussian 09 at Wed Apr  1 00:09:17 2015.
