using ub3lyp/6-31G(d) to scan                                           
SP        RM062X                                                      def2TZVP            
Number of atoms                            I               13
Info1-9                                    I   N=           9
          26          22           0           0           0         110
           1          18        -502
Charge                                     I                0
Multiplicity                               I                1
Number of electrons                        I               42
Number of alpha electrons                  I               21
Number of beta electrons                   I               21
Number of basis functions                  I              203
Number of independent functions            I              203
Number of point charges in /Mol/           I                0
Number of translation vectors              I                0
Atomic numbers                             I   N=          13
           6           1           1           1           6           1
           6           1           1           1           8           8
           1
Nuclear charges                            R   N=          13
  6.00000000E+00  1.00000000E+00  1.00000000E+00  1.00000000E+00  6.00000000E+00
  1.00000000E+00  6.00000000E+00  1.00000000E+00  1.00000000E+00  1.00000000E+00
  8.00000000E+00  8.00000000E+00  1.00000000E+00
Current cartesian coordinates              R   N=          39
  8.52789940E-01  2.78899956E+00  1.94995170E-01  2.36702560E+00  3.80181340E+00
 -7.90022687E-01  1.19674277E+00  2.92767711E+00  2.23392652E+00 -9.35393649E-01
  3.72794211E+00 -2.45836362E-01  7.71280383E-01  2.67396248E-02 -6.33785799E-01
  4.46260716E-01 -8.40947026E-02 -2.68127950E+00  3.15591634E+00 -1.44266606E+00
  5.74703512E-02  3.46766257E+00 -1.40986798E+00  2.10408911E+00  3.00261609E+00
 -3.41268855E+00 -5.50736115E-01  4.80157679E+00 -5.91433257E-01 -8.64162312E-01
 -1.22616581E+00 -1.33603260E+00  6.00218594E-01 -3.61438280E+00 -3.60041961E-01
 -3.62472149E-01 -4.30201256E+00  3.70817180E-01  1.17997145E+00
Force Field                                I                0
Int Atom Types                             I   N=          13
           0           0           0           0           0           0
           0           0           0           0           0           0
           0
MM charges                                 R   N=          13
  0.00000000E+00  0.00000000E+00  0.00000000E+00  0.00000000E+00  0.00000000E+00
  0.00000000E+00  0.00000000E+00  0.00000000E+00  0.00000000E+00  0.00000000E+00
  0.00000000E+00  0.00000000E+00  0.00000000E+00
Integer atomic weights                     I   N=          13
          12           1           1           1          12           1
          12           1           1           1          16          16
           1
Real atomic weights                        R   N=          13
  1.20000000E+01  1.00782504E+00  1.00782504E+00  1.00782504E+00  1.20000000E+01
  1.00782504E+00  1.20000000E+01  1.00782504E+00  1.00782504E+00  1.00782504E+00
  1.59949146E+01  1.59949146E+01  1.00782504E+00
Atom fragment info                         I   N=          13
           0           0           0           0           0           0
           0           0           0           0           0           0
           0
Atom residue num                           I   N=          13
           0           0           0           0           0           0
           0           0           0           0           0           0
           0
Nuclear spins                              I   N=          13
           0           1           1           1           0           1
           0           1           1           1           0           0
           1
Nuclear ZEff                               R   N=          13
 -3.60000000E+00 -1.00000000E+00 -1.00000000E+00 -1.00000000E+00 -3.60000000E+00
 -1.00000000E+00 -3.60000000E+00 -1.00000000E+00 -1.00000000E+00 -1.00000000E+00
 -5.60000000E+00 -5.60000000E+00 -1.00000000E+00
Nuclear ZNuc                               R   N=          13
  6.00000000E+00  1.00000000E+00  1.00000000E+00  1.00000000E+00  6.00000000E+00
  1.00000000E+00  6.00000000E+00  1.00000000E+00  1.00000000E+00  1.00000000E+00
  8.00000000E+00  8.00000000E+00  1.00000000E+00
Nuclear QMom                               R   N=          13
  0.00000000E+00  0.00000000E+00  0.00000000E+00  0.00000000E+00  0.00000000E+00
  0.00000000E+00  0.00000000E+00  0.00000000E+00  0.00000000E+00  0.00000000E+00
  0.00000000E+00  0.00000000E+00  0.00000000E+00
Nuclear GFac                               R   N=          13
  0.00000000E+00  2.79284600E+00  2.79284600E+00  2.79284600E+00  0.00000000E+00
  2.79284600E+00  0.00000000E+00  2.79284600E+00  2.79284600E+00  2.79284600E+00
  0.00000000E+00  0.00000000E+00  2.79284600E+00
MicOpt                                     I   N=          13
          -1          -1          -1          -1          -1          -1
          -1          -1          -1          -1          -1          -1
          -1
Number of contracted shells                I               87
Number of primitive shells                 I              148
Pure/Cartesian d shells                    I                0
Pure/Cartesian f shells                    I                0
Highest angular momentum                   I                3
Largest degree of contraction              I                6
Shell types                                I   N=          87
           0           0           0           0           0           1
           1           1          -2          -2          -3           0
           0           0           1           0           0           0
           1           0           0           0           1           0
           0           0           0           0           1           1
           1          -2          -2          -3           0           0
           0           1           0           0           0           0
           0           1           1           1          -2          -2
          -3           0           0           0           1           0
           0           0           1           0           0           0
           1           0           0           0           0           0
           1           1           1          -2          -2          -3
           0           0           0           0           0           1
           1           1          -2          -2          -3           0
           0           0           1
Number of primitives per shell             I   N=          87
           6           2           1           1           1           4
           1           1           1           1           1           3
           1           1           1           3           1           1
           1           3           1           1           1           6
           2           1           1           1           4           1
           1           1           1           1           3           1
           1           1           6           2           1           1
           1           4           1           1           1           1
           1           3           1           1           1           3
           1           1           1           3           1           1
           1           6           2           1           1           1
           4           1           1           1           1           1
           6           2           1           1           1           4
           1           1           1           1           1           3
           1           1           1
Shell to atom map                          I   N=          87
           1           1           1           1           1           1
           1           1           1           1           1           2
           2           2           2           3           3           3
           3           4           4           4           4           5
           5           5           5           5           5           5
           5           5           5           5           6           6
           6           6           7           7           7           7
           7           7           7           7           7           7
           7           8           8           8           8           9
           9           9           9          10          10          10
          10          11          11          11          11          11
          11          11          11          11          11          11
          12          12          12          12          12          12
          12          12          12          12          12          13
          13          13          13
Primitive exponents                        R   N=         148
  1.35753497E+04  2.03523337E+03  4.63225624E+02  1.31200196E+02  4.28530159E+01
  1.55841858E+01  6.20671385E+00  2.57648965E+00  5.76963394E-01  2.29728314E-01
  9.51644400E-02  3.46972322E+01  7.95826228E+00  2.37808269E+00  8.14332082E-01
  2.88875473E-01  1.00568237E-01  1.09700000E+00  3.18000000E-01  7.61000000E-01
  3.40613410E+01  5.12357460E+00  1.16466260E+00  3.27230410E-01  1.03072410E-01
  8.00000000E-01  3.40613410E+01  5.12357460E+00  1.16466260E+00  3.27230410E-01
  1.03072410E-01  8.00000000E-01  3.40613410E+01  5.12357460E+00  1.16466260E+00
  3.27230410E-01  1.03072410E-01  8.00000000E-01  1.35753497E+04  2.03523337E+03
  4.63225624E+02  1.31200196E+02  4.28530159E+01  1.55841858E+01  6.20671385E+00
  2.57648965E+00  5.76963394E-01  2.29728314E-01  9.51644400E-02  3.46972322E+01
  7.95826228E+00  2.37808269E+00  8.14332082E-01  2.88875473E-01  1.00568237E-01
  1.09700000E+00  3.18000000E-01  7.61000000E-01  3.40613410E+01  5.12357460E+00
  1.16466260E+00  3.27230410E-01  1.03072410E-01  8.00000000E-01  1.35753497E+04
  2.03523337E+03  4.63225624E+02  1.31200196E+02  4.28530159E+01  1.55841858E+01
  6.20671385E+00  2.57648965E+00  5.76963394E-01  2.29728314E-01  9.51644400E-02
  3.46972322E+01  7.95826228E+00  2.37808269E+00  8.14332082E-01  2.88875473E-01
  1.00568237E-01  1.09700000E+00  3.18000000E-01  7.61000000E-01  3.40613410E+01
  5.12357460E+00  1.16466260E+00  3.27230410E-01  1.03072410E-01  8.00000000E-01
  3.40613410E+01  5.12357460E+00  1.16466260E+00  3.27230410E-01  1.03072410E-01
  8.00000000E-01  3.40613410E+01  5.12357460E+00  1.16466260E+00  3.27230410E-01
  1.03072410E-01  8.00000000E-01  2.70323826E+04  4.05238714E+03  9.22327227E+02
  2.61240710E+02  8.53546414E+01  3.10350352E+01  1.22608607E+01  4.99870760E+00
  1.17031082E+00  4.64747410E-01  1.85045364E-01  6.32749548E+01  1.46270494E+01
  4.45012235E+00  1.52757996E+00  5.29351179E-01  1.74784213E-01  2.31400000E+00
  6.45000000E-01  1.42800000E+00  2.70323826E+04  4.05238714E+03  9.22327227E+02
  2.61240710E+02  8.53546414E+01  3.10350352E+01  1.22608607E+01  4.99870760E+00
  1.17031082E+00  4.64747410E-01  1.85045364E-01  6.32749548E+01  1.46270494E+01
  4.45012235E+00  1.52757996E+00  5.29351179E-01  1.74784213E-01  2.31400000E+00
  6.45000000E-01  1.42800000E+00  3.40613410E+01  5.12357460E+00  1.16466260E+00
  3.27230410E-01  1.03072410E-01  8.00000000E-01
Contraction coefficients                   R   N=         148
  6.06455036E-04  4.69790889E-03  2.43324776E-02  9.73999683E-02  3.01955843E-01
  6.62336091E-01  6.55953085E-01  3.75856333E-01  1.00000000E+00  1.00000000E+00
  1.00000000E+00  1.13272200E-02  7.61696592E-02  3.01922522E-01  7.27850273E-01
  1.00000000E+00  1.00000000E+00  1.00000000E+00  1.00000000E+00  1.00000000E+00
  2.54393072E-02  1.90085949E-01  8.52441130E-01  1.00000000E+00  1.00000000E+00
  1.00000000E+00  2.54393072E-02  1.90085949E-01  8.52441130E-01  1.00000000E+00
  1.00000000E+00  1.00000000E+00  2.54393072E-02  1.90085949E-01  8.52441130E-01
  1.00000000E+00  1.00000000E+00  1.00000000E+00  6.06455036E-04  4.69790889E-03
  2.43324776E-02  9.73999683E-02  3.01955843E-01  6.62336091E-01  6.55953085E-01
  3.75856333E-01  1.00000000E+00  1.00000000E+00  1.00000000E+00  1.13272200E-02
  7.61696592E-02  3.01922522E-01  7.27850273E-01  1.00000000E+00  1.00000000E+00
  1.00000000E+00  1.00000000E+00  1.00000000E+00  2.54393072E-02  1.90085949E-01
  8.52441130E-01  1.00000000E+00  1.00000000E+00  1.00000000E+00  6.06455036E-04
  4.69790889E-03  2.43324776E-02  9.73999683E-02  3.01955843E-01  6.62336091E-01
  6.55953085E-01  3.75856333E-01  1.00000000E+00  1.00000000E+00  1.00000000E+00
  1.13272200E-02  7.61696592E-02  3.01922522E-01  7.27850273E-01  1.00000000E+00
  1.00000000E+00  1.00000000E+00  1.00000000E+00  1.00000000E+00  2.54393072E-02
  1.90085949E-01  8.52441130E-01  1.00000000E+00  1.00000000E+00  1.00000000E+00
  2.54393072E-02  1.90085949E-01  8.52441130E-01  1.00000000E+00  1.00000000E+00
  1.00000000E+00  2.54393072E-02  1.90085949E-01  8.52441130E-01  1.00000000E+00
  1.00000000E+00  1.00000000E+00  5.72273352E-04  4.43532335E-03  2.30201077E-02
  9.28224907E-02  2.93785000E-01  6.74016045E-01  6.38399370E-01  3.95345871E-01
  1.00000000E+00  1.00000000E+00  1.00000000E+00  1.20183322E-02  8.30054218E-02
  3.19917439E-01  7.07155429E-01  1.00000000E+00  1.00000000E+00  1.00000000E+00
  1.00000000E+00  1.00000000E+00  5.72273352E-04  4.43532335E-03  2.30201077E-02
  9.28224907E-02  2.93785000E-01  6.74016045E-01  6.38399370E-01  3.95345871E-01
  1.00000000E+00  1.00000000E+00  1.00000000E+00  1.20183322E-02  8.30054218E-02
  3.19917439E-01  7.07155429E-01  1.00000000E+00  1.00000000E+00  1.00000000E+00
  1.00000000E+00  1.00000000E+00  2.54393072E-02  1.90085949E-01  8.52441130E-01
  1.00000000E+00  1.00000000E+00  1.00000000E+00
Coordinates of each shell                  R   N=         261
  8.52789167E-01  2.78899954E+00  1.94995170E-01  8.52789167E-01  2.78899954E+00
  1.94995170E-01  8.52789167E-01  2.78899954E+00  1.94995170E-01  8.52789167E-01
  2.78899954E+00  1.94995170E-01  8.52789167E-01  2.78899954E+00  1.94995170E-01
  8.52789167E-01  2.78899954E+00  1.94995170E-01  8.52789167E-01  2.78899954E+00
  1.94995170E-01  8.52789167E-01  2.78899954E+00  1.94995170E-01  8.52789167E-01
  2.78899954E+00  1.94995170E-01  8.52789167E-01  2.78899954E+00  1.94995170E-01
  8.52789167E-01  2.78899954E+00  1.94995170E-01  2.36702463E+00  3.80181368E+00
 -7.90022687E-01  2.36702463E+00  3.80181368E+00 -7.90022687E-01  2.36702463E+00
  3.80181368E+00 -7.90022687E-01  2.36702463E+00  3.80181368E+00 -7.90022687E-01
  1.19674197E+00  2.92767716E+00  2.23392652E+00  1.19674197E+00  2.92767716E+00
  2.23392652E+00  1.19674197E+00  2.92767716E+00  2.23392652E+00  1.19674197E+00
  2.92767716E+00  2.23392652E+00 -9.35394607E-01  3.72794175E+00 -2.45836362E-01
 -9.35394607E-01  3.72794175E+00 -2.45836362E-01 -9.35394607E-01  3.72794175E+00
 -2.45836362E-01 -9.35394607E-01  3.72794175E+00 -2.45836362E-01  7.71280153E-01
  2.67395965E-02 -6.33785799E-01  7.71280153E-01  2.67395965E-02 -6.33785799E-01
  7.71280153E-01  2.67395965E-02 -6.33785799E-01  7.71280153E-01  2.67395965E-02
 -6.33785799E-01  7.71280153E-01  2.67395965E-02 -6.33785799E-01  7.71280153E-01
  2.67395965E-02 -6.33785799E-01  7.71280153E-01  2.67395965E-02 -6.33785799E-01
  7.71280153E-01  2.67395965E-02 -6.33785799E-01  7.71280153E-01  2.67395965E-02
 -6.33785799E-01  7.71280153E-01  2.67395965E-02 -6.33785799E-01  7.71280153E-01
  2.67395965E-02 -6.33785799E-01  4.46260508E-01 -8.40947949E-02 -2.68127950E+00
  4.46260508E-01 -8.40947949E-02 -2.68127950E+00  4.46260508E-01 -8.40947949E-02
 -2.68127950E+00  4.46260508E-01 -8.40947949E-02 -2.68127950E+00  3.15591640E+00
 -1.44266562E+00  5.74703512E-02  3.15591640E+00 -1.44266562E+00  5.74703512E-02
  3.15591640E+00 -1.44266562E+00  5.74703512E-02  3.15591640E+00 -1.44266562E+00
  5.74703512E-02  3.15591640E+00 -1.44266562E+00  5.74703512E-02  3.15591640E+00
 -1.44266562E+00  5.74703512E-02  3.15591640E+00 -1.44266562E+00  5.74703512E-02
  3.15591640E+00 -1.44266562E+00  5.74703512E-02  3.15591640E+00 -1.44266562E+00
  5.74703512E-02  3.15591640E+00 -1.44266562E+00  5.74703512E-02  3.15591640E+00
 -1.44266562E+00  5.74703512E-02  3.46766262E+00 -1.40986747E+00  2.10408911E+00
  3.46766262E+00 -1.40986747E+00  2.10408911E+00  3.46766262E+00 -1.40986747E+00
  2.10408911E+00  3.46766262E+00 -1.40986747E+00  2.10408911E+00  3.00261653E+00
 -3.41268814E+00 -5.50736115E-01  3.00261653E+00 -3.41268814E+00 -5.50736115E-01
  3.00261653E+00 -3.41268814E+00 -5.50736115E-01  3.00261653E+00 -3.41268814E+00
 -5.50736115E-01  4.80157668E+00 -5.91432493E-01 -8.64162312E-01  4.80157668E+00
 -5.91432493E-01 -8.64162312E-01  4.80157668E+00 -5.91432493E-01 -8.64162312E-01
  4.80157668E+00 -5.91432493E-01 -8.64162312E-01 -1.22616577E+00 -1.33603302E+00
  6.00218594E-01 -1.22616577E+00 -1.33603302E+00  6.00218594E-01 -1.22616577E+00
 -1.33603302E+00  6.00218594E-01 -1.22616577E+00 -1.33603302E+00  6.00218594E-01
 -1.22616577E+00 -1.33603302E+00  6.00218594E-01 -1.22616577E+00 -1.33603302E+00
  6.00218594E-01 -1.22616577E+00 -1.33603302E+00  6.00218594E-01 -1.22616577E+00
 -1.33603302E+00  6.00218594E-01 -1.22616577E+00 -1.33603302E+00  6.00218594E-01
 -1.22616577E+00 -1.33603302E+00  6.00218594E-01 -1.22616577E+00 -1.33603302E+00
  6.00218594E-01 -3.61438295E+00 -3.60042852E-01 -3.62472149E-01 -3.61438295E+00
 -3.60042852E-01 -3.62472149E-01 -3.61438295E+00 -3.60042852E-01 -3.62472149E-01
 -3.61438295E+00 -3.60042852E-01 -3.62472149E-01 -3.61438295E+00 -3.60042852E-01
 -3.62472149E-01 -3.61438295E+00 -3.60042852E-01 -3.62472149E-01 -3.61438295E+00
 -3.60042852E-01 -3.62472149E-01 -3.61438295E+00 -3.60042852E-01 -3.62472149E-01
 -3.61438295E+00 -3.60042852E-01 -3.62472149E-01 -3.61438295E+00 -3.60042852E-01
 -3.62472149E-01 -3.61438295E+00 -3.60042852E-01 -3.62472149E-01 -4.30201286E+00
  3.70816154E-01  1.17997145E+00 -4.30201286E+00  3.70816154E-01  1.17997145E+00
 -4.30201286E+00  3.70816154E-01  1.17997145E+00 -4.30201286E+00  3.70816154E-01
  1.17997145E+00
Constraint Structure                       R   N=          39
  8.52789167E-01  2.78899954E+00  1.94995170E-01  2.36702463E+00  3.80181368E+00
 -7.90022687E-01  1.19674197E+00  2.92767716E+00  2.23392652E+00 -9.35394607E-01
  3.72794175E+00 -2.45836362E-01  7.71280153E-01  2.67395965E-02 -6.33785799E-01
  4.46260508E-01 -8.40947949E-02 -2.68127950E+00  3.15591640E+00 -1.44266562E+00
  5.74703512E-02  3.46766262E+00 -1.40986747E+00  2.10408911E+00  3.00261653E+00
 -3.41268814E+00 -5.50736115E-01  4.80157668E+00 -5.91432493E-01 -8.64162312E-01
 -1.22616577E+00 -1.33603302E+00  6.00218594E-01 -3.61438295E+00 -3.60042852E-01
 -3.62472149E-01 -4.30201286E+00  3.70816154E-01  1.17997145E+00
Num ILSW                                   I              100
ILSW                                       I   N=         100
           0           0           0           0           2           0
           0           0           0           0        4336          -1
           0           0           0           0           0           0
           0           0           0           0           0           0
           1           0           0           0           0           0
           0           0      100000           0          -1           0
           0           0           0           0           0           0
           0           0           0           1           0           0
           0           0           1           0           0           0
           0           0           4          41           0           0
           0           0          55           0           0           0
           0           0           0          13           0           0
           0           0           0           0           0           0
           0           0           0           0           0           0
           0           0           0           0           0           0
           0           0           0           0           0           0
           0           0           0           0
Num RLSW                                   I               41
RLSW                                       R   N=          41
  1.00000000E+00  1.00000000E+00  1.00000000E+00  1.00000000E+00  5.40000000E-01
  0.00000000E+00  0.00000000E+00  1.00000000E+00  0.00000000E+00  0.00000000E+00
  0.00000000E+00  0.00000000E+00  1.00000000E+00  0.00000000E+00  0.00000000E+00
  0.00000000E+00  0.00000000E+00  1.00000000E+00  0.00000000E+00  0.00000000E+00
  0.00000000E+00  0.00000000E+00  1.00000000E+00  0.00000000E+00  0.00000000E+00
  0.00000000E+00  0.00000000E+00  1.00000000E+00  0.00000000E+00  0.00000000E+00
  0.00000000E+00  0.00000000E+00  1.00000000E+00  0.00000000E+00  0.00000000E+00
  0.00000000E+00  0.00000000E+00  0.00000000E+00  1.00000000E+00  1.00000000E+00
  0.00000000E+00
ECP-MxAtEC                                 I           250000
ECP-MaxLECP                                I               10
ECP-MaxAtL                                 I          2250000
ECP-MxTECP                                 I         11250000
ECP-LenNCZ                                 I                0
ECP-KFirst                                 I   N=         130
           0           0           0           0           0           0
           0           0           0           0           0           0
           0           0           0           0           0           0
           0           0           0           0           0           0
           0           0           0           0           0           0
           0           0           0           0           0           0
           0           0           0           0           0           0
           0           0           0           0           0           0
           0           0           0           0           0           0
           0           0           0           0           0           0
           0           0           0           0           0           0
           0           0           0           0           0           0
           0           0           0           0           0           0
           0           0           0           0           0           0
           0           0           0           0           0           0
           0           0           0           0           0           0
           0           0           0           0           0           0
           0           0           0           0           0           0
           0           0           0           0           0           0
           0           0           0           0           0           0
           0           0           0           0           0           0
           0           0           0           0
ECP-KLast                                  I   N=         130
           0           0           0           0           0           0
           0           0           0           0           0           0
           0           0           0           0           0           0
           0           0           0           0           0           0
           0           0           0           0           0           0
           0           0           0           0           0           0
           0           0           0           0           0           0
           0           0           0           0           0           0
           0           0           0           0           0           0
           0           0           0           0           0           0
           0           0           0           0           0           0
           0           0           0           0           0           0
           0           0           0           0           0           0
           0           0           0           0           0           0
           0           0           0           0           0           0
           0           0           0           0           0           0
           0           0           0           0           0           0
           0           0           0           0           0           0
           0           0           0           0           0           0
           0           0           0           0           0           0
           0           0           0           0           0           0
           0           0           0           0
ECP-LMax                                   I   N=          13
           0           0           0           0           0           0
           0           0           0           0           0           0
           0
ECP-LPSkip                                 I   N=          13
           1           1           1           1           1           1
           1           1           1           1           1           1
           1
ECP-RNFroz                                 R   N=          13
  0.00000000E+00  0.00000000E+00  0.00000000E+00  0.00000000E+00  0.00000000E+00
  0.00000000E+00  0.00000000E+00  0.00000000E+00  0.00000000E+00  0.00000000E+00
  0.00000000E+00  0.00000000E+00  0.00000000E+00
ECP-NLP                                    I                0
ECP-CLP1                                   R      0.000000000000000E+00
ECP-CLP2                                   R      0.000000000000000E+00
ECP-ZLP                                    R      0.000000000000000E+00
MxBond                                     I                4
NBond                                      I   N=          13
           4           1           1           1           4           1
           4           1           1           1           2           2
           1
IBond                                      I   N=          52
           2           3           4           5           1           0
           0           0           1           0           0           0
           1           0           0           0           1           6
           7          11           5           0           0           0
           5           8           9          10           7           0
           0           0           7           0           0           0
           7           0           0           0           5          12
           0           0          11          13           0           0
          12           0           0           0
RBond                                      R   N=          52
  1.00000000E+00  1.00000000E+00  1.00000000E+00  1.00000000E+00  1.00000000E+00
  0.00000000E+00  0.00000000E+00  0.00000000E+00  1.00000000E+00  0.00000000E+00
  0.00000000E+00  0.00000000E+00  1.00000000E+00  0.00000000E+00  0.00000000E+00
  0.00000000E+00  1.00000000E+00  1.00000000E+00  1.00000000E+00  1.00000000E+00
  1.00000000E+00  0.00000000E+00  0.00000000E+00  0.00000000E+00  1.00000000E+00
  1.00000000E+00  1.00000000E+00  1.00000000E+00  1.00000000E+00  0.00000000E+00
  0.00000000E+00  0.00000000E+00  1.00000000E+00  0.00000000E+00  0.00000000E+00
  0.00000000E+00  1.00000000E+00  0.00000000E+00  0.00000000E+00  0.00000000E+00
  1.00000000E+00  1.00000000E+00  0.00000000E+00  0.00000000E+00  1.00000000E+00
  1.00000000E+00  0.00000000E+00  0.00000000E+00  1.00000000E+00  0.00000000E+00
  0.00000000E+00  0.00000000E+00
Virial Ratio                               R      2.005190119250325E+00
SCF Energy                                 R     -2.694737750871473E+02
Total Energy                               R     -2.694737750871473E+02
RMS Density                                R      3.434079742075887E-09
External E-field                           R   N=          35
  0.00000000E+00  0.00000000E+00  0.00000000E+00  0.00000000E+00  0.00000000E+00
  0.00000000E+00  0.00000000E+00  0.00000000E+00  0.00000000E+00  0.00000000E+00
  0.00000000E+00  0.00000000E+00  0.00000000E+00  0.00000000E+00  0.00000000E+00
  0.00000000E+00  0.00000000E+00  0.00000000E+00  0.00000000E+00  0.00000000E+00
  0.00000000E+00  0.00000000E+00  0.00000000E+00  0.00000000E+00  0.00000000E+00
  0.00000000E+00  0.00000000E+00  0.00000000E+00  0.00000000E+00  0.00000000E+00
  0.00000000E+00  0.00000000E+00  0.00000000E+00  0.00000000E+00  0.00000000E+00
IOpCl                                      I                0
IROHF                                      I                0
Alpha Orbital Energies                     R   N=         203
 -1.96820994E+01 -1.96800768E+01 -1.05941592E+01 -1.05328068E+01 -1.05299997E+01
 -1.24199775E+00 -1.03067962E+00 -8.64023914E-01 -7.87086378E-01 -6.70565023E-01
 -6.11991322E-01 -5.49034961E-01 -5.34896862E-01 -5.21761025E-01 -4.62207782E-01
 -4.57387212E-01 -4.47447661E-01 -4.26761759E-01 -4.07023457E-01 -3.84371266E-01
 -3.42925922E-01  5.73489821E-02  6.71564733E-02  1.08404223E-01  1.16340832E-01
  1.19082651E-01  1.35378731E-01  1.41964598E-01  1.63830658E-01  1.78280941E-01
  1.83271252E-01  1.97103674E-01  2.25158879E-01  2.44849038E-01  2.50487049E-01
  2.93537547E-01  3.13443269E-01  3.46452372E-01  3.55120180E-01  3.77053302E-01
  4.05601335E-01  4.21786450E-01  4.40446908E-01  4.46999824E-01  4.55512630E-01
  4.56496887E-01  4.78512187E-01  4.89379520E-01  5.06667131E-01  5.15227284E-01
  5.36063783E-01  5.48897111E-01  5.63605446E-01  5.90332769E-01  6.08349427E-01
  6.21296315E-01  6.44067546E-01  6.72395820E-01  6.98898522E-01  7.64217432E-01
  8.26263869E-01  8.35713078E-01  8.65310933E-01  8.89250210E-01  9.13862759E-01
  9.18088289E-01  9.65321686E-01  1.00348968E+00  1.03102066E+00  1.09156174E+00
  1.10342393E+00  1.14373582E+00  1.16219926E+00  1.20282397E+00  1.20784536E+00
  1.26617255E+00  1.32837261E+00  1.37864452E+00  1.48234702E+00  1.51115282E+00
  1.56071529E+00  1.56406169E+00  1.57999518E+00  1.59616287E+00  1.59981441E+00
  1.62099998E+00  1.63775791E+00  1.65217263E+00  1.68491787E+00  1.71799089E+00