Title Card Required                                                     
Freq      UB3LYP                                                      6-31G(d)            
Number of atoms                            I                1
Info1-9                                    I   N=           9
          15          10        1002           0           0         100
           6          18        -502
Charge                                     I                0
Multiplicity                               I                3
Number of electrons                        I                6
Number of alpha electrons                  I                4
Number of beta electrons                   I                2
Number of basis functions                  I               15
Number of independent functions            I               15
Number of point charges in /Mol/           I                0
Number of translation vectors              I                0
Atomic numbers                             I   N=           1
           6
Nuclear charges                            R   N=           1
  6.00000000E+00
Current cartesian coordinates              R   N=           3
  0.00000000E+00  0.00000000E+00  0.00000000E+00
Force Field                                I                0
Int Atom Types                             I   N=           1
           0
MM charges                                 R   N=           1
  0.00000000E+00
Integer atomic weights                     I   N=           1
          12
Real atomic weights                        R   N=           1
  1.20000000E+01
Atom fragment info                         I   N=           1
           0
Atom residue num                           I   N=           1
           0
Nuclear spins                              I   N=           1
           0
Nuclear ZEff                               R   N=           1
 -3.60000000E+00
Nuclear ZNuc                               R   N=           1
  6.00000000E+00
Nuclear QMom                               R   N=           1
  0.00000000E+00
Nuclear GFac                               R   N=           1
  0.00000000E+00
MicOpt                                     I   N=           1
          -1
Number of contracted shells                I                4
Number of primitive shells                 I               11
Pure/Cartesian d shells                    I                1
Pure/Cartesian f shells                    I                0
Highest angular momentum                   I                2
Largest degree of contraction              I                6
Shell types                                I   N=           4
           0          -1          -1           2
Number of primitives per shell             I   N=           4
           6           3           1           1
Shell to atom map                          I   N=           4
           1           1           1           1
Primitive exponents                        R   N=          11
  3.04752488E+03  4.57369518E+02  1.03948685E+02  2.92101553E+01  9.28666296E+00
  3.16392696E+00  7.86827235E+00  1.88128854E+00  5.44249258E-01  1.68714478E-01
  8.00000000E-01
Contraction coefficients                   R   N=          11
  1.83473713E-03  1.40373228E-02  6.88426223E-02  2.32184443E-01  4.67941348E-01
  3.62311985E-01 -1.19332420E-01 -1.60854152E-01  1.14345644E+00  1.00000000E+00
  1.00000000E+00
P(S=P) Contraction coefficients            R   N=          11
  0.00000000E+00  0.00000000E+00  0.00000000E+00  0.00000000E+00  0.00000000E+00
  0.00000000E+00  6.89990666E-02  3.16423961E-01  7.44308291E-01  1.00000000E+00
  0.00000000E+00
Coordinates of each shell                  R   N=          12
  0.00000000E+00  0.00000000E+00  0.00000000E+00  0.00000000E+00  0.00000000E+00
  0.00000000E+00  0.00000000E+00  0.00000000E+00  0.00000000E+00  0.00000000E+00
  0.00000000E+00  0.00000000E+00
Constraint Structure                       R   N=           3
  0.00000000E+00  0.00000000E+00  0.00000000E+00
Num ILSW                                   I              100
ILSW                                       I   N=         100
           1           1           0           0           2           0
           0           0           0           0         402          -1
           0           0           0           0           2           0
           0           0           1           0           1           0
           1           0           0           0           0           0
           0           0      100000           0          -1           0
           0           0           0           0           0           0
           0           0           0           1           0           0
           0           0           1           0           0           0
           0           2           4          41           0           0
           0           0           5           0           0           0
           0           0           0           0           0           0
           0           0           0           0           0           0
           0           0           0           0           0           0
           0           0           0           0           0           0
           0           0           0           0           0           0
           0           0           0           0
Num RLSW                                   I               41
RLSW                                       R   N=          41
  8.00000000E-01  7.20000000E-01  1.00000000E+00  8.10000000E-01  2.00000000E-01
  0.00000000E+00  0.00000000E+00  1.00000000E+00  0.00000000E+00  0.00000000E+00
  0.00000000E+00  0.00000000E+00  1.00000000E+00  0.00000000E+00  0.00000000E+00
  0.00000000E+00  0.00000000E+00  1.00000000E+00  0.00000000E+00  0.00000000E+00
  0.00000000E+00  0.00000000E+00  1.00000000E+00  0.00000000E+00  0.00000000E+00
  0.00000000E+00  0.00000000E+00  1.00000000E+00  0.00000000E+00  0.00000000E+00
  0.00000000E+00  0.00000000E+00  1.00000000E+00  0.00000000E+00  0.00000000E+00
  0.00000000E+00  0.00000000E+00  0.00000000E+00  1.00000000E+00  1.00000000E+00
  0.00000000E+00
MxBond                                     I                1
NBond                                      I   N=           1
           0
IBond                                      I   N=           1
           0
RBond                                      R   N=           1
  0.00000000E+00
Virial Ratio                               R      2.007078198124482E+00
SCF Energy                                 R     -3.784628040850505E+01
Total Energy                               R     -3.784628040850505E+01
S**2                                       R      2.001991520002069E+00
S**2 after annihilation                    R      2.000000004342492E+00
External E-field                           R   N=          35
  0.00000000E+00  0.00000000E+00  0.00000000E+00  0.00000000E+00  0.00000000E+00
  0.00000000E+00  0.00000000E+00  0.00000000E+00  0.00000000E+00  0.00000000E+00
  0.00000000E+00  0.00000000E+00  0.00000000E+00  0.00000000E+00  0.00000000E+00
  0.00000000E+00  0.00000000E+00  0.00000000E+00  0.00000000E+00  0.00000000E+00
  0.00000000E+00  0.00000000E+00  0.00000000E+00  0.00000000E+00  0.00000000E+00
  0.00000000E+00  0.00000000E+00  0.00000000E+00  0.00000000E+00  0.00000000E+00
  0.00000000E+00  0.00000000E+00  0.00000000E+00  0.00000000E+00  0.00000000E+00
IOpCl                                      I                1
IROHF                                      I                0
Alpha Orbital Energies                     R   N=          15
 -1.03020856E+01 -5.76828785E-01 -2.52719946E-01 -2.52719946E-01 -1.38846465E-01
  5.10621092E-01  5.10621092E-01  5.36094087E-01  5.65940464E-01  1.63288041E+00
  1.63288163E+00  1.64344846E+00  1.64344846E+00  1.66178807E+00  3.75276488E+00
Beta Orbital Energies                      R   N=          15
 -1.02752238E+01 -4.65468505E-01 -1.05813444E-01 -5.56943260E-02 -5.56943260E-02
  5.53954966E-01  5.90968029E-01  5.90968029E-01  6.18868202E-01  1.71290039E+00
  1.72768468E+00  1.72768468E+00  1.77243340E+00  1.77243348E+00  3.82094490E+00
Alpha MO coefficients                      R   N=         225
  9.92271117E-01  4.98253214E-02  0.00000000E+00  0.00000000E+00  0.00000000E+00
 -4.74653965E-03  0.00000000E+00  0.00000000E+00  0.00000000E+00 -1.14296280E-02
 -1.06082888E-02 -1.06082888E-02  0.00000000E+00  0.00000000E+00  0.00000000E+00
 -2.36842534E-01  5.18048402E-01  0.00000000E+00  0.00000000E+00  0.00000000E+00
  5.86349044E-01  0.00000000E+00  0.00000000E+00  0.00000000E+00 -2.41380958E-02
 -8.04851518E-03 -8.04851518E-03  0.00000000E+00  0.00000000E+00  0.00000000E+00
  0.00000000E+00  0.00000000E+00  0.00000000E+00  0.00000000E+00  6.62121251E-01
  0.00000000E+00  0.00000000E+00  0.00000000E+00  4.61747207E-01  0.00000000E+00
  0.00000000E+00  0.00000000E+00  0.00000000E+00  0.00000000E+00  0.00000000E+00
  0.00000000E+00  0.00000000E+00  0.00000000E+00  6.62121251E-01  0.00000000E+00
  0.00000000E+00  0.00000000E+00  4.61747207E-01  0.00000000E+00  0.00000000E+00
  0.00000000E+00  0.00000000E+00  0.00000000E+00  0.00000000E+00  0.00000000E+00
  0.00000000E+00  0.00000000E+00  6.03941014E-01  0.00000000E+00  0.00000000E+00
  0.00000000E+00  5.24037187E-01  0.00000000E+00  0.00000000E+00  0.00000000E+00
  0.00000000E+00  0.00000000E+00  0.00000000E+00  0.00000000E+00  0.00000000E+00
  0.00000000E+00  0.00000000E+00  0.00000000E+00  0.00000000E+00 -1.02090316E+00
  0.00000000E+00  0.00000000E+00  0.00000000E+00  1.12580520E+00  0.00000000E+00
  0.00000000E+00  0.00000000E+00  0.00000000E+00  0.00000000E+00  0.00000000E+00
  0.00000000E+00  0.00000000E+00  0.00000000E+00 -1.02090316E+00  0.00000000E+00
  0.00000000E+00  0.00000000E+00  1.12580520E+00  0.00000000E+00  0.00000000E+00
  0.00000000E+00  0.00000000E+00  0.00000000E+00  0.00000000E+00  0.00000000E+00
  0.00000000E+00  0.00000000E+00 -1.05636314E+00  0.00000000E+00  0.00000000E+00
  0.00000000E+00  1.09819527E+00  0.00000000E+00  0.00000000E+00  0.00000000E+00
  0.00000000E+00  0.00000000E+00  0.00000000E+00  0.00000000E+00  0.00000000E+00
  5.10316547E-02 -1.45641261E+00  0.00000000E+00  0.00000000E+00  0.00000000E+00
  1.66122341E+00  0.00000000E+00  0.00000000E+00  0.00000000E+00 -1.00173162E-01
 -1.12575941E-01 -1.12575941E-01  0.00000000E+00  0.00000000E+00  0.00000000E+00
  0.00000000E+00  0.00000000E+00  0.00000000E+00  0.00000000E+00  0.00000000E+00
  0.00000000E+00  0.00000000E+00  0.00000000E+00  0.00000000E+00  0.00000000E+00
  0.00000000E+00  0.00000000E+00  0.00000000E+00  0.00000000E+00  1.00000000E+00
 -2.01072750E-15  3.52378100E-15  0.00000000E+00  0.00000000E+00  0.00000000E+00
  2.91241846E-15  0.00000000E+00  0.00000000E+00  0.00000000E+00  5.89706431E-14
  8.66025404E-01 -8.66025404E-01  0.00000000E+00  0.00000000E+00  0.00000000E+00
  0.00000000E+00  0.00000000E+00  0.00000000E+00  0.00000000E+00  0.00000000E+00
  0.00000000E+00  0.00000000E+00  0.00000000E+00  0.00000000E+00  0.00000000E+00
  0.00000000E+00  0.00000000E+00  0.00000000E+00  1.00000000E+00  0.00000000E+00
  0.00000000E+00  0.00000000E+00  0.00000000E+00  0.00000000E+00  0.00000000E+00
  0.00000000E+00  0.00000000E+00  0.00000000E+00  0.00000000E+00  0.00000000E+00
  0.00000000E+00  0.00000000E+00  1.00000000E+00  0.00000000E+00  0.00000000E+00
 -8.90588198E-04  6.24500876E-03  0.00000000E+00  0.00000000E+00  0.00000000E+00
 -9.97427573E-03  0.00000000E+00  0.00000000E+00  0.00000000E+00  1.00677687E+00
 -4.93076028E-01 -4.93076028E-01  0.00000000E+00  0.00000000E+00  0.00000000E+00
 -4.34086356E-01  3.23224936E+00  0.00000000E+00  0.00000000E+00  0.00000000E+00
  7.16830327E-01  0.00000000E+00  0.00000000E+00  0.00000000E+00 -1.73653285E+00
 -1.74181495E+00 -1.74181495E+00  0.00000000E+00  0.00000000E+00  0.00000000E+00
Beta MO coefficients                       R   N=         225
  9.93278347E-01  4.35040478E-02  0.00000000E+00  0.00000000E+00  0.00000000E+00
 -4.96008005E-03  0.00000000E+00  0.00000000E+00  0.00000000E+00 -8.47657494E-03
 -9.11752586E-03 -9.11752586E-03  0.00000000E+00  0.00000000E+00  0.00000000E+00
 -2.33496835E-01  4.73298469E-01  0.00000000E+00  0.00000000E+00  0.00000000E+00
  6.39229617E-01  0.00000000E+00  0.00000000E+00  0.00000000E+00  2.63609827E-03
 -2.81248725E-02 -2.81248725E-02  0.00000000E+00  0.00000000E+00  0.00000000E+00
  0.00000000E+00  0.00000000E+00  5.86235123E-01  0.00000000E+00  0.00000000E+00
  0.00000000E+00  5.42283950E-01  0.00000000E+00  0.00000000E+00  0.00000000E+00
  0.00000000E+00  0.00000000E+00  0.00000000E+00  0.00000000E+00  0.00000000E+00
  0.00000000E+00  0.00000000E+00  0.00000000E+00  5.56709281E-01  0.00000000E+00
  0.00000000E+00  0.00000000E+00  5.72015900E-01  0.00000000E+00  0.00000000E+00
  0.00000000E+00  0.00000000E+00  0.00000000E+00  0.00000000E+00  0.00000000E+00
  0.00000000E+00  0.00000000E+00  0.00000000E+00  0.00000000E+00  5.56709281E-01
  0.00000000E+00  0.00000000E+00  0.00000000E+00  5.72015900E-01  0.00000000E+00
  0.00000000E+00  0.00000000E+00  0.00000000E+00  0.00000000E+00  0.00000000E+00
  0.00000000E+00  0.00000000E+00 -1.06629086E+00  0.00000000E+00  0.00000000E+00
  0.00000000E+00  1.08930067E+00  0.00000000E+00  0.00000000E+00  0.00000000E+00
  0.00000000E+00  0.00000000E+00  0.00000000E+00  0.00000000E+00  0.00000000E+00
  0.00000000E+00  0.00000000E+00  0.00000000E+00  1.08199935E+00  0.00000000E+00
  0.00000000E+00  0.00000000E+00 -1.07398586E+00  0.00000000E+00  0.00000000E+00
  0.00000000E+00  0.00000000E+00  0.00000000E+00  0.00000000E+00  0.00000000E+00
  0.00000000E+00  0.00000000E+00  0.00000000E+00  0.00000000E+00  1.08199935E+00
  0.00000000E+00  0.00000000E+00  0.00000000E+00 -1.07398586E+00  0.00000000E+00
  0.00000000E+00  0.00000000E+00  0.00000000E+00  0.00000000E+00  0.00000000E+00
  5.48144997E-02 -1.45269526E+00  0.00000000E+00  0.00000000E+00  0.00000000E+00
  1.64595826E+00  0.00000000E+00  0.00000000E+00  0.00000000E+00 -1.34614928E-01
 -1.10138803E-01 -1.10138803E-01  0.00000000E+00  0.00000000E+00  0.00000000E+00
  7.50160181E-03 -5.02118020E-02  0.00000000E+00  0.00000000E+00  0.00000000E+00
  1.00981060E-02  0.00000000E+00  0.00000000E+00  0.00000000E+00  1.00708457E+00
 -4.92380016E-01 -4.92380016E-01  0.00000000E+00  0.00000000E+00  0.00000000E+00
  0.00000000E+00  0.00000000E+00  0.00000000E+00  0.00000000E+00  0.00000000E+00
  0.00000000E+00  0.00000000E+00  0.00000000E+00  0.00000000E+00  0.00000000E+00
  0.00000000E+00  0.00000000E+00  0.00000000E+00  1.00000000E+00  0.00000000E+00
  0.00000000E+00  0.00000000E+00  0.00000000E+00  0.00000000E+00  0.00000000E+00
  0.00000000E+00  0.00000000E+00  0.00000000E+00  0.00000000E+00  0.00000000E+00
  0.00000000E+00  0.00000000E+00  1.00000000E+00  0.00000000E+00  0.00000000E+00
 -1.03162729E-15  5.95777471E-15  0.00000000E+00  0.00000000E+00  0.00000000E+00
  2.21018998E-15  0.00000000E+00  0.00000000E+00  0.00000000E+00 -4.52987579E-14
  8.66025404E-01 -8.66025404E-01  0.00000000E+00  0.00000000E+00  0.00000000E+00
  0.00000000E+00  0.00000000E+00  0.00000000E+00  0.00000000E+00  0.00000000E+00
  0.00000000E+00  0.00000000E+00  0.00000000E+00  0.00000000E+00  0.00000000E+00
  0.00000000E+00  0.00000000E+00  0.00000000E+00  0.00000000E+00  1.00000000E+00
 -4.33069040E-01  3.24048152E+00  0.00000000E+00  0.00000000E+00  0.00000000E+00
  7.06764788E-01  0.00000000E+00  0.00000000E+00  0.00000000E+00 -1.73420721E+00
 -1.74196762E+00 -1.74196762E+00  0.00000000E+00  0.00000000E+00  0.00000000E+00
Total SCF Density                          R   N=         120
  2.08181900E+00 -1.40557735E-01  4.96760753E-01  0.00000000E+00  0.00000000E+00
  1.64375379E-33  0.00000000E+00  0.00000000E+00 -6.71113414E-18  4.38404552E-01
  0.00000000E+00  0.00000000E+00  6.71113414E-18  2.01837458E-31  4.38404552E-01
 -2.97767080E-01  6.05851303E-01  0.00000000E+00  0.00000000E+00  0.00000000E+00
  7.52466836E-01  0.00000000E+00  0.00000000E+00  1.14631379E-33 -4.68018122E-18
  4.68018122E-18  0.00000000E+00  7.99411271E-34  0.00000000E+00  0.00000000E+00
 -4.68018122E-18  3.05732639E-01 -4.00593428E-32  0.00000000E+00 -3.26384420E-18
  2.13210484E-01  0.00000000E+00  0.00000000E+00  4.68018122E-18 -4.00593428E-32
  3.05732639E-01  0.00000000E+00  3.26384420E-18 -1.53689210E-31  2.13210484E-01
 -1.46594810E-02 -1.21952909E-02  0.00000000E+00  0.00000000E+00  0.00000000E+00
 -1.23719816E-02  0.00000000E+00  0.00000000E+00  0.00000000E+00  7.92085402E-04
 -1.11092401E-02 -1.84061902E-02  0.00000000E+00  0.00000000E+00  0.00000000E+00
 -2.26019143E-02  0.00000000E+00  0.00000000E+00  0.00000000E+00  3.18670088E-04
  1.05145212E-03 -1.11092401E-02 -1.84061902E-02  0.00000000E+00  0.00000000E+00
  0.00000000E+00 -2.26019143E-02  0.00000000E+00  0.00000000E+00  0.00000000E+00
  3.18670088E-04  1.05145212E-03  1.05145212E-03 -6.27549589E-20  1.09785434E-19
  0.00000000E+00  0.00000000E+00  0.00000000E+00  1.80826889E-19  0.00000000E+00
  0.00000000E+00  0.00000000E+00  8.36820932E-21 -1.29528413E-20 -1.29528413E-20
  3.01501044E-36  6.27549589E-20 -1.09785434E-19  0.00000000E+00  0.00000000E+00
  0.00000000E+00 -1.80826889E-19  0.00000000E+00  0.00000000E+00  0.00000000E+00
 -8.36820932E-21  1.29528413E-20  1.29528413E-20  0.00000000E+00  3.01501044E-36
  4.69167569E-32  3.72498618E-33  0.00000000E+00  0.00000000E+00  0.00000000E+00
  1.62620665E-33  0.00000000E+00  0.00000000E+00  0.00000000E+00 -5.11413270E-34
 -5.92887842E-34 -5.96362642E-34  0.00000000E+00  0.00000000E+00  4.91371655E-52
Spin SCF Density                           R   N=         120
 -4.26290829E-04 -5.95360306E-03  4.49526661E-02  0.00000000E+00  0.00000000E+00
  1.64375379E-33  0.00000000E+00  0.00000000E+00 -6.71113414E-18  4.38404552E-01
  0.00000000E+00  0.00000000E+00  6.71113414E-18  2.01837458E-31  4.38404552E-01
  1.06025847E-02  1.19007176E-03  0.00000000E+00  0.00000000E+00  0.00000000E+00
 -6.48113741E-02  0.00000000E+00  0.00000000E+00  1.14631379E-33 -4.68018122E-18
  4.68018122E-18  0.00000000E+00  7.99411271E-34  0.00000000E+00  0.00000000E+00
 -4.68018122E-18  3.05732639E-01 -4.00593428E-32  0.00000000E+00 -3.26384420E-18
  2.13210484E-01  0.00000000E+00  0.00000000E+00  4.68018122E-18 -4.00593428E-32
  3.05732639E-01  0.00000000E+00  3.26384420E-18 -1.53689210E-31  2.13210484E-01
  3.41075694E-03 -1.39530828E-02  0.00000000E+00  0.00000000E+00  0.00000000E+00
 -1.58262148E-02  0.00000000E+00  0.00000000E+00  0.00000000E+00  6.34482728E-04
 -6.13089551E-03  9.01002657E-03  0.00000000E+00  0.00000000E+00  0.00000000E+00
  1.32641413E-02  0.00000000E+00  0.00000000E+00  0.00000000E+00  3.12379161E-04
 -6.96823345E-04 -6.13089551E-03  9.01002657E-03  0.00000000E+00  0.00000000E+00
  0.00000000E+00  1.32641413E-02  0.00000000E+00  0.00000000E+00  0.00000000E+00
  3.12379161E-04 -6.96823345E-04 -6.96823345E-04  1.68660672E-19 -4.05901753E-19
  0.00000000E+00  0.00000000E+00  0.00000000E+00 -5.14208522E-19  0.00000000E+00
  0.00000000E+00  0.00000000E+00  5.69358445E-21  1.78389198E-20  1.78389198E-20
 -1.71747226E-36 -1.68660672E-19  4.05901753E-19  0.00000000E+00  0.00000000E+00
  0.00000000E+00  5.14208522E-19  0.00000000E+00  0.00000000E+00  0.00000000E+00
 -5.69358445E-21 -1.78389198E-20 -1.78389198E-20  0.00000000E+00 -1.71747226E-36
  3.82575539E-32  5.55968086E-35  0.00000000E+00  0.00000000E+00  0.00000000E+00
 -2.59915080E-33  0.00000000E+00  0.00000000E+00  0.00000000E+00 -4.42419477E-34
 -3.07954198E-34 -3.04479397E-34  0.00000000E+00  0.00000000E+00 -4.91371655E-52
Mulliken Charges                           R   N=           1
 -7.99360578E-15
ONIOM Charges                              I   N=          16
           0           0           0           0           0           0
           0           0           0           0           0           0
           0           0           0           0
ONIOM Multiplicities                       I   N=          16
           3           0           0           0           0           0
           0           0           0           0           0           0
           0           0           0           0
Atom Layers                                I   N=           1
           1
Atom Modifiers                             I   N=           1
           0
Force Field                                I                0
Int Atom Modified Types                    I   N=           1
           0
Link Atoms                                 I   N=           1
           0
Atom Modified MM Charges                   R   N=           1
  0.00000000E+00
Link Distances                             R   N=           4
  0.00000000E+00  0.00000000E+00  0.00000000E+00  0.00000000E+00
Cartesian Gradient                         R   N=           3
  0.00000000E+00  0.00000000E+00  0.00000000E+00
Cartesian Force Constants                  R   N=           6
 -3.82054053E-31 -2.46519033E-32 -2.79457096E-31  4.93038066E-32 -2.15865579E-44
 -2.79457096E-31
Dipole Moment                              R   N=           3
  0.00000000E+00  0.00000000E+00  0.00000000E+00
Dipole Derivatives                         R   N=           9
 -2.80703043E-15  1.40495087E-28  1.13761825E-26  1.26046349E-28 -3.10879316E-15
  1.11247009E-28  1.02062378E-26  1.11247009E-28 -3.10879316E-15
Polarizability                             R   N=           6
  6.98724157E+00  6.00830003E-13  6.34976745E+00  4.86504681E-11  5.30285415E-13
  6.34976745E+00
Anisotropic Hyperfine tensors              R   N=           6
 -1.30714031E+00  0.00000000E+00  6.53570153E-01  0.00000000E+00  0.00000000E+00
  6.53570153E-01
Isotropic Hyperfine splittings             R   N=           1
  9.61691876E-03
QEq coupling tensors                       R   N=           6
 -1.27128628E+00  0.00000000E+00  6.35643140E-01  0.00000000E+00  0.00000000E+00
  6.35643140E-01
