 Entering Gaussian System, Link 0=g09
 Initial command:
 /usr/caen/gaussian-09revc/g09/l1.exe /scratch/avioli_flux/hetanjin/scratch/Gau-124005.inp -scrdir=/scratch/avioli_flux/hetanjin/scratch/
 Entering Link 1 = /usr/caen/gaussian-09revc/g09/l1.exe PID=    124006.
  
 Copyright (c) 1988,1990,1992,1993,1995,1998,2003,2009,2011,
            Gaussian, Inc.  All Rights Reserved.
  
 This is part of the Gaussian(R) 09 program.  It is based on
 the Gaussian(R) 03 system (copyright 2003, Gaussian, Inc.),
 the Gaussian(R) 98 system (copyright 1998, Gaussian, Inc.),
 the Gaussian(R) 94 system (copyright 1995, Gaussian, Inc.),
 the Gaussian 92(TM) system (copyright 1992, Gaussian, Inc.),
 the Gaussian 90(TM) system (copyright 1990, Gaussian, Inc.),
 the Gaussian 88(TM) system (copyright 1988, Gaussian, Inc.),
 the Gaussian 86(TM) system (copyright 1986, Carnegie Mellon
 University), and the Gaussian 82(TM) system (copyright 1983,
 Carnegie Mellon University). Gaussian is a federally registered
 trademark of Gaussian, Inc.
  
 This software contains proprietary and confidential information,
 including trade secrets, belonging to Gaussian, Inc.
  
 This software is provided under written license and may be
 used, copied, transmitted, or stored only in accord with that
 written license.
  
 The following legend is applicable only to US Government
 contracts under FAR:
  
                    RESTRICTED RIGHTS LEGEND
  
 Use, reproduction and disclosure by the US Government is
 subject to restrictions as set forth in subparagraphs (a)
 and (c) of the Commercial Computer Software - Restricted
 Rights clause in FAR 52.227-19.
  
 Gaussian, Inc.
 340 Quinnipiac St., Bldg. 40, Wallingford CT 06492
  
  
 ---------------------------------------------------------------
 Warning -- This program may not be used in any manner that
 competes with the business of Gaussian, Inc. or will provide
 assistance to any competitor of Gaussian, Inc.  The licensee
 of this program is prohibited from giving any competitor of
 Gaussian, Inc. access to this program.  By using this program,
 the user acknowledges that Gaussian, Inc. is engaged in the
 business of creating and licensing software in the field of
 computational chemistry and represents and warrants to the
 licensee that it is not a competitor of Gaussian, Inc. and that
 it will not use this program in any manner prohibited above.
 ---------------------------------------------------------------
  

 Cite this work as:
 Gaussian 09, Revision C.01,
 M. J. Frisch, G. W. Trucks, H. B. Schlegel, G. E. Scuseria, 
 M. A. Robb, J. R. Cheeseman, G. Scalmani, V. Barone, B. Mennucci, 
 G. A. Petersson, H. Nakatsuji, M. Caricato, X. Li, H. P. Hratchian, 
 A. F. Izmaylov, J. Bloino, G. Zheng, J. L. Sonnenberg, M. Hada, 
 M. Ehara, K. Toyota, R. Fukuda, J. Hasegawa, M. Ishida, T. Nakajima, 
 Y. Honda, O. Kitao, H. Nakai, T. Vreven, J. A. Montgomery, Jr., 
 J. E. Peralta, F. Ogliaro, M. Bearpark, J. J. Heyd, E. Brothers, 
 K. N. Kudin, V. N. Staroverov, T. Keith, R. Kobayashi, J. Normand, 
 K. Raghavachari, A. Rendell, J. C. Burant, S. S. Iyengar, J. Tomasi, 
 M. Cossi, N. Rega, J. M. Millam, M. Klene, J. E. Knox, J. B. Cross, 
 V. Bakken, C. Adamo, J. Jaramillo, R. Gomperts, R. E. Stratmann, 
 O. Yazyev, A. J. Austin, R. Cammi, C. Pomelli, J. W. Ochterski, 
 R. L. Martin, K. Morokuma, V. G. Zakrzewski, G. A. Voth, 
 P. Salvador, J. J. Dannenberg, S. Dapprich, A. D. Daniels, 
 O. Farkas, J. B. Foresman, J. V. Ortiz, J. Cioslowski, 
 and D. J. Fox, Gaussian, Inc., Wallingford CT, 2010.
 
 ******************************************
 Gaussian 09:  EM64L-G09RevC.01 23-Sep-2011
                17-Feb-2014 
 ******************************************
 %mem=30GB
 %nprocshared=8
 Will use up to    8 processors via shared memory.
 %chk=TS_1_1f.chk
 -------------------------------
 #p cbs-qb3 opt=(TS,calcfc) freq
 -------------------------------
 1/5=1,10=4,14=-1,18=20,26=3,38=1/1,3;
 2/9=110,12=2,17=6,18=5,40=1/2;
 3/5=4,6=6,7=700,11=2,16=1,25=1,30=1,71=2,74=-5/1,2,3;
 4//1;
 5/5=2,38=5/2;
 8/6=4,10=90,11=11/1;
 11/6=1,8=1,9=11,15=111,16=1/1,2,10;
 10/6=1,7=6,13=1/2;
 6/7=2,8=2,9=2,10=2,28=1/1;
 7/10=1,18=20,25=1/1,2,3,16;
 1/5=1,10=4,14=-1,18=20/3(2);
 2/9=110/2;
 99//99;
 2/9=110/2;
 3/5=4,6=6,7=700,11=2,16=1,25=1,30=1,71=1,74=-5/1,2,3;
 4/5=5,16=3/1;
 5/5=2,38=5/2;
 7//1,2,3,16;
 1/5=1,14=-1,18=20/3(-5);
 2/9=110/2;
 6/7=2,8=2,9=2,10=2,19=2,28=1/1;
 99/9=1/99;
 Leave Link    1 at Mon Feb 17 01:55:52 2014, MaxMem= 4026531840 cpu:       0.4
 (Enter /usr/caen/gaussian-09revc/g09/l101.exe)
 ------------------------------------
 TS_1_1f using cbs-qb3 to cal. energy
 ------------------------------------
 Charge =  0 Multiplicity = 2
 Symbolic Z-Matrix:
 C                     2.20453  -0.83423   1.46043 
 H                     2.36331  -1.90947   1.58754 
 H                     1.2443   -0.57161   1.8993 
 H                     2.97547  -0.3171    2.03944 
 C                     2.31512  -0.45311  -0.02911 
 H                     3.34242  -0.72022  -0.31483 
 C                     1.40998  -1.29438  -0.96994 
 H                     1.86673  -1.29645  -1.96629 
 H                     1.45922  -2.33191  -0.61956 
 C                    -0.07011  -0.90085  -1.16383 
 H                    -0.5429   -1.69078  -1.77119 
 H                    -0.1238    0.0037   -1.77615 
 C                    -0.89654  -0.70691   0.08532 
 H                    -0.3647    0.47804   0.56308 
 H                    -0.64856  -1.39536   0.8974 
 C                    -2.39386  -0.47713  -0.04357 
 H                    -2.8137   -1.4165   -0.44496 
 C                    -3.03499  -0.24016   1.3327 
 H                    -2.6726    0.69313   1.77451 
 H                    -4.12302  -0.17022   1.24928 
 H                    -2.80348  -1.05393   2.02644 
 C                     2.27119   1.06645  -0.27616 
 H                     2.84288   1.58619   0.50144 
 H                     2.71236   1.30591  -1.2491 
 C                    -2.76256   0.64819  -1.02361 
 H                    -3.84881   0.76023  -1.08089 
 H                    -2.33975   1.60189  -0.695 
 H                    -2.39793   0.44844  -2.03389 
 O                     0.97737   1.67566  -0.38898 
 O                     0.22462   1.46795   0.7865 
 
 NAtoms=     30 NQM=        0 NQMF=       0 NMMI=     30 NMMIF=      0
                NMic=       0 NMicF=      0.
                    Isotopes and Nuclear Properties:
 (Nuclear quadrupole moments (NQMom) in fm**2, nuclear magnetic moments (NMagM)
  in nuclear magnetons)

  Atom         1           2           3           4           5           6           7           8           9          10
 IAtWgt=          12           1           1           1          12           1          12           1           1          12
 AtmWgt=  12.0000000   1.0078250   1.0078250   1.0078250  12.0000000   1.0078250  12.0000000   1.0078250   1.0078250  12.0000000
 NucSpn=           0           1           1           1           0           1           0           1           1           0
 AtZEff=   0.0000000   0.0000000   0.0000000   0.0000000   0.0000000   0.0000000   0.0000000   0.0000000   0.0000000   0.0000000
 NQMom=    0.0000000   0.0000000   0.0000000   0.0000000   0.0000000   0.0000000   0.0000000   0.0000000   0.0000000   0.0000000
 NMagM=    0.0000000   2.7928460   2.7928460   2.7928460   0.0000000   2.7928460   0.0000000   2.7928460   2.7928460   0.0000000

  Atom        11          12          13          14          15          16          17          18          19          20
 IAtWgt=           1           1          12           1           1          12           1          12           1           1
 AtmWgt=   1.0078250   1.0078250  12.0000000   1.0078250   1.0078250  12.0000000   1.0078250  12.0000000   1.0078250   1.0078250
 NucSpn=           1           1           0           1           1           0           1           0           1           1
 AtZEff=   0.0000000   0.0000000   0.0000000   0.0000000   0.0000000   0.0000000   0.0000000   0.0000000   0.0000000   0.0000000
 NQMom=    0.0000000   0.0000000   0.0000000   0.0000000   0.0000000   0.0000000   0.0000000   0.0000000   0.0000000   0.0000000
 NMagM=    2.7928460   2.7928460   0.0000000   2.7928460   2.7928460   0.0000000   2.7928460   0.0000000   2.7928460   2.7928460

  Atom        21          22          23          24          25          26          27          28          29          30
 IAtWgt=           1          12           1           1          12           1           1           1          16          16
 AtmWgt=   1.0078250  12.0000000   1.0078250   1.0078250  12.0000000   1.0078250   1.0078250   1.0078250  15.9949146  15.9949146
 NucSpn=           1           0           1           1           0           1           1           1           0           0
 AtZEff=   0.0000000   0.0000000   0.0000000   0.0000000   0.0000000   0.0000000   0.0000000   0.0000000   0.0000000   0.0000000
 NQMom=    0.0000000   0.0000000   0.0000000   0.0000000   0.0000000   0.0000000   0.0000000   0.0000000   0.0000000   0.0000000
 NMagM=    2.7928460   0.0000000   2.7928460   2.7928460   0.0000000   2.7928460   2.7928460   2.7928460   0.0000000   0.0000000
 Leave Link  101 at Mon Feb 17 01:55:53 2014, MaxMem= 4026531840 cpu:       1.8
 (Enter /usr/caen/gaussian-09revc/g09/l103.exe)

 GradGradGradGradGradGradGradGradGradGradGradGradGradGradGradGradGradGrad
 Berny optimization.
 Initialization pass.
                           ----------------------------
                           !    Initial Parameters    !
                           ! (Angstroms and Degrees)  !
 --------------------------                            --------------------------
 ! Name  Definition              Value          Derivative Info.                !
 --------------------------------------------------------------------------------
 ! R1    R(1,2)                  1.0943         calculate D2E/DX2 analytically  !
 ! R2    R(1,3)                  1.0879         calculate D2E/DX2 analytically  !
 ! R3    R(1,4)                  1.0941         calculate D2E/DX2 analytically  !
 ! R4    R(1,5)                  1.5415         calculate D2E/DX2 analytically  !
 ! R5    R(5,6)                  1.0992         calculate D2E/DX2 analytically  !
 ! R6    R(5,7)                  1.5531         calculate D2E/DX2 analytically  !
 ! R7    R(5,22)                 1.5401         calculate D2E/DX2 analytically  !
 ! R8    R(7,8)                  1.0961         calculate D2E/DX2 analytically  !
 ! R9    R(7,9)                  1.0962         calculate D2E/DX2 analytically  !
 ! R10   R(7,10)                 1.5437         calculate D2E/DX2 analytically  !
 ! R11   R(10,11)                1.1029         calculate D2E/DX2 analytically  !
 ! R12   R(10,12)                1.0936         calculate D2E/DX2 analytically  !
 ! R13   R(10,13)                1.5103         calculate D2E/DX2 analytically  !
 ! R14   R(13,14)                1.3839         calculate D2E/DX2 analytically  !
 ! R15   R(13,15)                1.0931         calculate D2E/DX2 analytically  !
 ! R16   R(13,16)                1.5203         calculate D2E/DX2 analytically  !
 ! R17   R(14,30)                1.1735         calculate D2E/DX2 analytically  !
 ! R18   R(16,17)                1.1044         calculate D2E/DX2 analytically  !
 ! R19   R(16,18)                1.5367         calculate D2E/DX2 analytically  !
 ! R20   R(16,25)                1.5371         calculate D2E/DX2 analytically  !
 ! R21   R(18,19)                1.0943         calculate D2E/DX2 analytically  !
 ! R22   R(18,20)                1.0935         calculate D2E/DX2 analytically  !
 ! R23   R(18,21)                1.0941         calculate D2E/DX2 analytically  !
 ! R24   R(22,23)                1.0962         calculate D2E/DX2 analytically  !
 ! R25   R(22,24)                1.0948         calculate D2E/DX2 analytically  !
 ! R26   R(22,29)                1.4345         calculate D2E/DX2 analytically  !
 ! R27   R(25,26)                1.0935         calculate D2E/DX2 analytically  !
 ! R28   R(25,27)                1.0938         calculate D2E/DX2 analytically  !
 ! R29   R(25,28)                1.0925         calculate D2E/DX2 analytically  !
 ! R30   R(29,30)                1.4112         calculate D2E/DX2 analytically  !
 ! A1    A(2,1,3)              108.5658         calculate D2E/DX2 analytically  !
 ! A2    A(2,1,4)              107.5006         calculate D2E/DX2 analytically  !
 ! A3    A(2,1,5)              110.1674         calculate D2E/DX2 analytically  !
 ! A4    A(3,1,4)              107.1185         calculate D2E/DX2 analytically  !
 ! A5    A(3,1,5)              113.1684         calculate D2E/DX2 analytically  !
 ! A6    A(4,1,5)              110.1184         calculate D2E/DX2 analytically  !
 ! A7    A(1,5,6)              104.9593         calculate D2E/DX2 analytically  !
 ! A8    A(1,5,7)              114.1807         calculate D2E/DX2 analytically  !
 ! A9    A(1,5,22)             113.384          calculate D2E/DX2 analytically  !
 ! A10   A(6,5,7)              104.8079         calculate D2E/DX2 analytically  !
 ! A11   A(6,5,22)             102.9859         calculate D2E/DX2 analytically  !
 ! A12   A(7,5,22)             114.8746         calculate D2E/DX2 analytically  !
 ! A13   A(5,7,8)              107.9882         calculate D2E/DX2 analytically  !
 ! A14   A(5,7,9)              107.0297         calculate D2E/DX2 analytically  !
 ! A15   A(5,7,10)             119.7861         calculate D2E/DX2 analytically  !
 ! A16   A(8,7,9)              105.6675         calculate D2E/DX2 analytically  !
 ! A17   A(8,7,10)             106.6097         calculate D2E/DX2 analytically  !
 ! A18   A(9,7,10)             108.9347         calculate D2E/DX2 analytically  !
 ! A19   A(7,10,11)            107.3127         calculate D2E/DX2 analytically  !
 ! A20   A(7,10,12)            109.162          calculate D2E/DX2 analytically  !
 ! A21   A(7,10,13)            116.9683         calculate D2E/DX2 analytically  !
 ! A22   A(11,10,12)           105.2492         calculate D2E/DX2 analytically  !
 ! A23   A(11,10,13)           108.2324         calculate D2E/DX2 analytically  !
 ! A24   A(12,10,13)           109.2693         calculate D2E/DX2 analytically  !
 ! A25   A(10,13,14)           100.6727         calculate D2E/DX2 analytically  !
 ! A26   A(10,13,15)           114.1694         calculate D2E/DX2 analytically  !
 ! A27   A(10,13,16)           119.2231         calculate D2E/DX2 analytically  !
 ! A28   A(14,13,15)           101.2801         calculate D2E/DX2 analytically  !
 ! A29   A(14,13,16)           106.1615         calculate D2E/DX2 analytically  !
 ! A30   A(15,13,16)           112.4317         calculate D2E/DX2 analytically  !
 ! A31   A(13,16,17)           106.0602         calculate D2E/DX2 analytically  !
 ! A32   A(13,16,18)           110.995          calculate D2E/DX2 analytically  !
 ! A33   A(13,16,25)           113.6363         calculate D2E/DX2 analytically  !
 ! A34   A(17,16,18)           107.3414         calculate D2E/DX2 analytically  !
 ! A35   A(17,16,25)           107.4443         calculate D2E/DX2 analytically  !
 ! A36   A(18,16,25)           110.9809         calculate D2E/DX2 analytically  !
 ! A37   A(16,18,19)           110.7906         calculate D2E/DX2 analytically  !
 ! A38   A(16,18,20)           110.897          calculate D2E/DX2 analytically  !
 ! A39   A(16,18,21)           111.4017         calculate D2E/DX2 analytically  !
 ! A40   A(19,18,20)           107.8036         calculate D2E/DX2 analytically  !
 ! A41   A(19,18,21)           107.9539         calculate D2E/DX2 analytically  !
 ! A42   A(20,18,21)           107.8476         calculate D2E/DX2 analytically  !
 ! A43   A(5,22,23)            109.8244         calculate D2E/DX2 analytically  !
 ! A44   A(5,22,24)            110.2954         calculate D2E/DX2 analytically  !
 ! A45   A(5,22,29)            117.216          calculate D2E/DX2 analytically  !
 ! A46   A(23,22,24)           108.4547         calculate D2E/DX2 analytically  !
 ! A47   A(23,22,29)           108.9539         calculate D2E/DX2 analytically  !
 ! A48   A(24,22,29)           101.5756         calculate D2E/DX2 analytically  !
 ! A49   A(16,25,26)           110.284          calculate D2E/DX2 analytically  !
 ! A50   A(16,25,27)           110.7364         calculate D2E/DX2 analytically  !
 ! A51   A(16,25,28)           112.0675         calculate D2E/DX2 analytically  !
 ! A52   A(26,25,27)           108.0831         calculate D2E/DX2 analytically  !
 ! A53   A(26,25,28)           107.568          calculate D2E/DX2 analytically  !
 ! A54   A(27,25,28)           107.9533         calculate D2E/DX2 analytically  !
 ! A55   A(22,29,30)           110.6755         calculate D2E/DX2 analytically  !
 ! A56   A(14,30,29)           103.5002         calculate D2E/DX2 analytically  !
 ! A57   L(13,14,30,1,-1)      176.5616         calculate D2E/DX2 analytically  !
 ! A58   L(13,14,30,1,-2)      169.3065         calculate D2E/DX2 analytically  !
 ! D1    D(2,1,5,6)            -61.4686         calculate D2E/DX2 analytically  !
 ! D2    D(2,1,5,7)             52.7337         calculate D2E/DX2 analytically  !
 ! D3    D(2,1,5,22)          -173.1189         calculate D2E/DX2 analytically  !
 ! D4    D(3,1,5,6)            176.7877         calculate D2E/DX2 analytically  !
 ! D5    D(3,1,5,7)            -69.0101         calculate D2E/DX2 analytically  !
 ! D6    D(3,1,5,22)            65.1374         calculate D2E/DX2 analytically  !
 ! D7    D(4,1,5,6)             56.9373         calculate D2E/DX2 analytically  !
 ! D8    D(4,1,5,7)            171.1395         calculate D2E/DX2 analytically  !
 ! D9    D(4,1,5,22)           -54.713          calculate D2E/DX2 analytically  !
 ! D10   D(1,5,7,8)           -154.2226         calculate D2E/DX2 analytically  !
 ! D11   D(1,5,7,9)            -40.869          calculate D2E/DX2 analytically  !
 ! D12   D(1,5,7,10)            83.6273         calculate D2E/DX2 analytically  !
 ! D13   D(6,5,7,8)            -39.9311         calculate D2E/DX2 analytically  !
 ! D14   D(6,5,7,9)             73.4226         calculate D2E/DX2 analytically  !
 ! D15   D(6,5,7,10)          -162.0812         calculate D2E/DX2 analytically  !
 ! D16   D(22,5,7,8)            72.3262         calculate D2E/DX2 analytically  !
 ! D17   D(22,5,7,9)          -174.3201         calculate D2E/DX2 analytically  !
 ! D18   D(22,5,7,10)          -49.8239         calculate D2E/DX2 analytically  !
 ! D19   D(1,5,22,23)           39.5891         calculate D2E/DX2 analytically  !
 ! D20   D(1,5,22,24)          159.0673         calculate D2E/DX2 analytically  !
 ! D21   D(1,5,22,29)          -85.4163         calculate D2E/DX2 analytically  !
 ! D22   D(6,5,22,23)          -73.2614         calculate D2E/DX2 analytically  !
 ! D23   D(6,5,22,24)           46.2167         calculate D2E/DX2 analytically  !
 ! D24   D(6,5,22,29)          161.7331         calculate D2E/DX2 analytically  !
 ! D25   D(7,5,22,23)          173.4085         calculate D2E/DX2 analytically  !
 ! D26   D(7,5,22,24)          -67.1133         calculate D2E/DX2 analytically  !
 ! D27   D(7,5,22,29)           48.403          calculate D2E/DX2 analytically  !
 ! D28   D(5,7,10,11)         -173.6869         calculate D2E/DX2 analytically  !
 ! D29   D(5,7,10,12)           72.7364         calculate D2E/DX2 analytically  !
 ! D30   D(5,7,10,13)          -51.9305         calculate D2E/DX2 analytically  !
 ! D31   D(8,7,10,11)           63.4887         calculate D2E/DX2 analytically  !
 ! D32   D(8,7,10,12)          -50.0879         calculate D2E/DX2 analytically  !
 ! D33   D(8,7,10,13)         -174.7549         calculate D2E/DX2 analytically  !
 ! D34   D(9,7,10,11)          -50.1061         calculate D2E/DX2 analytically  !
 ! D35   D(9,7,10,12)         -163.6827         calculate D2E/DX2 analytically  !
 ! D36   D(9,7,10,13)           71.6503         calculate D2E/DX2 analytically  !
 ! D37   D(7,10,13,14)          71.5262         calculate D2E/DX2 analytically  !
 ! D38   D(7,10,13,15)         -36.0967         calculate D2E/DX2 analytically  !
 ! D39   D(7,10,13,16)        -173.0076         calculate D2E/DX2 analytically  !
 ! D40   D(11,10,13,14)       -167.1982         calculate D2E/DX2 analytically  !
 ! D41   D(11,10,13,15)         85.1789         calculate D2E/DX2 analytically  !
 ! D42   D(11,10,13,16)        -51.732          calculate D2E/DX2 analytically  !
 ! D43   D(12,10,13,14)        -53.0866         calculate D2E/DX2 analytically  !
 ! D44   D(12,10,13,15)       -160.7095         calculate D2E/DX2 analytically  !
 ! D45   D(12,10,13,16)         62.3796         calculate D2E/DX2 analytically  !
 ! D46   D(10,13,30,29)          8.9957         calculate D2E/DX2 analytically  !
 ! D47   D(15,13,30,29)        125.5058         calculate D2E/DX2 analytically  !
 ! D48   D(16,13,30,29)       -114.5714         calculate D2E/DX2 analytically  !
 ! D49   D(10,13,16,17)         66.3174         calculate D2E/DX2 analytically  !
 ! D50   D(10,13,16,18)       -177.406          calculate D2E/DX2 analytically  !
 ! D51   D(10,13,16,25)        -51.4906         calculate D2E/DX2 analytically  !
 ! D52   D(14,13,16,17)        178.8404         calculate D2E/DX2 analytically  !
 ! D53   D(14,13,16,18)        -64.883          calculate D2E/DX2 analytically  !
 ! D54   D(14,13,16,25)         61.0324         calculate D2E/DX2 analytically  !
 ! D55   D(15,13,16,17)        -71.2852         calculate D2E/DX2 analytically  !
 ! D56   D(15,13,16,18)         44.9914         calculate D2E/DX2 analytically  !
 ! D57   D(15,13,16,25)        170.9068         calculate D2E/DX2 analytically  !
 ! D58   D(13,16,18,19)         65.7382         calculate D2E/DX2 analytically  !
 ! D59   D(13,16,18,20)       -174.5895         calculate D2E/DX2 analytically  !
 ! D60   D(13,16,18,21)        -54.457          calculate D2E/DX2 analytically  !
 ! D61   D(17,16,18,19)       -178.7776         calculate D2E/DX2 analytically  !
 ! D62   D(17,16,18,20)        -59.1052         calculate D2E/DX2 analytically  !
 ! D63   D(17,16,18,21)         61.0273         calculate D2E/DX2 analytically  !
 ! D64   D(25,16,18,19)        -61.6419         calculate D2E/DX2 analytically  !
 ! D65   D(25,16,18,20)         58.0304         calculate D2E/DX2 analytically  !
 ! D66   D(25,16,18,21)        178.1629         calculate D2E/DX2 analytically  !
 ! D67   D(13,16,25,26)        179.488          calculate D2E/DX2 analytically  !
 ! D68   D(13,16,25,27)        -60.9237         calculate D2E/DX2 analytically  !
 ! D69   D(13,16,25,28)         59.6821         calculate D2E/DX2 analytically  !
 ! D70   D(17,16,25,26)         62.4835         calculate D2E/DX2 analytically  !
 ! D71   D(17,16,25,27)       -177.9281         calculate D2E/DX2 analytically  !
 ! D72   D(17,16,25,28)        -57.3223         calculate D2E/DX2 analytically  !
 ! D73   D(18,16,25,26)        -54.5892         calculate D2E/DX2 analytically  !
 ! D74   D(18,16,25,27)         64.9992         calculate D2E/DX2 analytically  !
 ! D75   D(18,16,25,28)       -174.395          calculate D2E/DX2 analytically  !
 ! D76   D(5,22,29,30)          59.2749         calculate D2E/DX2 analytically  !
 ! D77   D(23,22,29,30)        -66.1645         calculate D2E/DX2 analytically  !
 ! D78   D(24,22,29,30)        179.5053         calculate D2E/DX2 analytically  !
 ! D79   D(22,29,30,14)        -91.7165         calculate D2E/DX2 analytically  !
 --------------------------------------------------------------------------------
 Trust Radius=3.00D-01 FncErr=1.00D-07 GrdErr=1.00D-06
 Number of steps in this run=    177 maximum allowed number of steps=    180.
 Search for a saddle point of order  1.
 GradGradGradGradGradGradGradGradGradGradGradGradGradGradGradGradGradGrad

 Leave Link  103 at Mon Feb 17 01:55:53 2014, MaxMem= 4026531840 cpu:       0.2
 (Enter /usr/caen/gaussian-09revc/g09/l202.exe)
                          Input orientation:                          
 ---------------------------------------------------------------------
 Center     Atomic      Atomic             Coordinates (Angstroms)
 Number     Number       Type             X           Y           Z
 ---------------------------------------------------------------------
      1          6           0        2.204528   -0.834234    1.460432
      2          1           0        2.363305   -1.909474    1.587542
      3          1           0        1.244296   -0.571611    1.899299
      4          1           0        2.975473   -0.317099    2.039442
      5          6           0        2.315123   -0.453110   -0.029112
      6          1           0        3.342423   -0.720218   -0.314828
      7          6           0        1.409976   -1.294380   -0.969943
      8          1           0        1.866725   -1.296446   -1.966291
      9          1           0        1.459219   -2.331908   -0.619560
     10          6           0       -0.070109   -0.900850   -1.163829
     11          1           0       -0.542901   -1.690782   -1.771189
     12          1           0       -0.123802    0.003695   -1.776148
     13          6           0       -0.896539   -0.706907    0.085316
     14          1           0       -0.364703    0.478044    0.563080
     15          1           0       -0.648564   -1.395355    0.897397
     16          6           0       -2.393861   -0.477133   -0.043573
     17          1           0       -2.813697   -1.416503   -0.444962
     18          6           0       -3.034986   -0.240158    1.332697
     19          1           0       -2.672602    0.693126    1.774513
     20          1           0       -4.123016   -0.170219    1.249282
     21          1           0       -2.803475   -1.053928    2.026441
     22          6           0        2.271193    1.066449   -0.276160
     23          1           0        2.842879    1.586190    0.501441
     24          1           0        2.712355    1.305906   -1.249099
     25          6           0       -2.762557    0.648185   -1.023610
     26          1           0       -3.848814    0.760228   -1.080886
     27          1           0       -2.339746    1.601886   -0.694996
     28          1           0       -2.397933    0.448442   -2.033892
     29          8           0        0.977373    1.675658   -0.388981
     30          8           0        0.224623    1.467949    0.786495
 ---------------------------------------------------------------------
                    Distance matrix (angstroms):
                    1          2          3          4          5
     1  C    0.000000
     2  H    1.094307   0.000000
     3  H    1.087943   1.771793   0.000000
     4  H    1.094092   1.764829   1.755389   0.000000
     5  C    1.541502   2.176439   2.208955   2.175655   0.000000
     6  H    2.111718   2.447859   3.053945   2.416556   1.099239
     7  C    2.598032   2.797840   2.963511   3.530192   1.553122
     8  H    3.474217   3.640347   3.981908   4.270169   2.159847
     9  H    2.669247   2.422214   3.080501   3.664529   2.147343
    10  C    3.473493   3.809051   3.349450   4.458394   2.679064
    11  H    4.327287   4.446902   4.233096   5.365340   3.568608
    12  H    4.074150   4.600036   3.963784   4.926169   3.034660
    13  C    3.394668   3.785424   2.809273   4.354657   3.223706
    14  H    3.021301   3.767200   2.340114   3.737469   2.898138
    15  H    2.961756   3.132407   2.294620   3.949753   3.244948
    16  C    4.851261   5.229031   4.125514   5.761450   4.709067
    17  H    5.399273   5.583497   4.762007   6.394954   5.235060
    18  C    5.274633   5.656245   4.329336   6.052357   5.524811
    19  H    5.120339   5.671758   4.117915   5.743822   5.426262
    20  H    6.365792   6.723971   5.421409   7.143842   6.569928
    21  H    5.044673   5.255493   4.078388   5.825747   5.548543
    22  C    2.575421   3.512547   2.910392   2.787872   1.540137
    23  H    2.680598   3.691785   3.027471   2.450620   2.172270
    24  H    3.489935   4.301981   3.948756   3.676667   2.177223
    25  C    5.748040   6.295570   5.107462   6.575641   5.290058
    26  H    6.756001   7.268992   6.049386   7.580763   6.369658
    27  H    5.588468   6.297485   4.929484   6.277835   5.131687
    28  H    5.919308   6.429925   5.456769   6.786133   5.200465
    29  O    3.350492   4.322109   3.218337   3.722999   2.539830
    30  O    3.110347   4.077085   2.537296   3.510477   2.953959
                    6          7          8          9         10
     6  H    0.000000
     7  C    2.119714   0.000000
     8  H    2.288461   1.096053   0.000000
     9  H    2.497371   1.096201   1.746977   0.000000
    10  C    3.521194   1.543732   2.133487   2.164024   0.000000
    11  H    4.261305   2.147757   2.449462   2.397035   1.102910
    12  H    3.830695   2.165050   2.385104   3.049376   1.093627
    13  C    4.257827   2.603595   3.491744   2.947384   1.510286
    14  H    3.993662   2.939580   3.811273   3.552627   2.229428
    15  H    4.225314   2.781140   3.812764   2.760623   2.197225
    16  C    5.747836   3.999404   4.745599   4.314879   2.614256
    17  H    6.196738   4.257926   4.922927   4.373358   2.882697
    18  C    6.604252   5.115782   6.002153   5.327720   3.931876
    19  H    6.522531   5.305626   6.209469   5.652819   4.236459
    20  H    7.647334   6.066523   6.890957   6.271110   4.773152
    21  H    6.585208   5.175838   6.149105   5.177366   4.203873
    22  C    2.083557   2.607018   2.933157   3.510848   3.184324
    23  H    2.497070   3.537777   3.918184   4.303795   4.176600
    24  H    2.318410   2.921576   2.828726   3.898764   3.552344
    25  C    6.296482   4.602876   5.108864   5.183397   3.109413
    26  H    7.381900   5.646999   6.138504   6.160304   4.128519
    27  H    6.150101   4.745984   5.264116   5.469238   3.410974
    28  H    6.105132   4.320832   4.608309   4.960676   2.827784
    29  O    3.367370   3.057088   3.480267   4.043010   2.887213
    30  O    3.965055   3.481465   4.232754   4.235579   3.082505
                   11         12         13         14         15
    11  H    0.000000
    12  H    1.745543   0.000000
    13  C    2.130653   2.137084   0.000000
    14  H    3.191296   2.398964   1.383914   0.000000
    15  H    2.686967   3.062770   1.093128   1.924050   0.000000
    16  C    2.807785   2.895890   1.520323   2.323332   2.185090
    17  H    2.643978   3.320324   2.111922   3.256229   2.547582
    18  C    4.236615   4.266072   2.519280   2.870285   2.686815
    19  H    4.773955   4.424804   2.822743   2.615383   3.037732
    20  H    4.924691   5.017687   3.471744   3.875053   3.700892
    21  H    4.465173   4.770629   2.743136   3.230476   2.456614
    22  C    4.213853   3.019174   3.648285   2.828161   3.995334
    23  H    5.231338   4.061145   4.406212   3.394167   4.608315
    24  H    4.455268   3.165015   4.342372   3.665738   4.816641
    25  C    3.310062   2.818636   2.558909   2.880319   3.512163
    26  H    4.172892   3.864123   3.496919   3.862807   4.336098
    27  H    3.902372   2.938284   2.832359   2.597416   3.792000
    28  H    2.843666   2.331502   2.842544   3.298358   3.879734
    29  O    3.943938   2.435627   3.068081   2.035158   3.705342
    30  O    4.136233   2.971965   2.545320   1.173512   2.995541
                   16         17         18         19         20
    16  C    0.000000
    17  H    1.104442   0.000000
    18  C    1.536658   2.143088   0.000000
    19  H    2.180055   3.065373   1.094323   0.000000
    20  H    2.180745   2.477499   1.093462   1.767748   0.000000
    21  H    2.187563   2.497879   1.094121   1.769970   1.768080
    22  C    4.919296   5.661241   5.696594   5.365234   6.688963
    23  H    5.654891   6.473693   6.210944   5.730515   7.222737
    24  H    5.541296   6.212519   6.487520   6.206085   7.425843
    25  C    1.537124   2.144851   2.532894   2.799929   2.772485
    26  H    2.173469   2.492794   2.736507   3.088896   2.524005
    27  H    2.179358   3.065586   2.826309   2.652379   3.178148
    28  H    2.195011   2.485071   3.494843   3.826129   3.760038
    29  O    4.014852   4.892525   4.767971   4.355272   5.666139
    30  O    3.365831   4.366685   3.720352   3.157601   4.669018
                   21         22         23         24         25
    21  H    0.000000
    22  C    5.962401   0.000000
    23  H    6.416943   1.096184   0.000000
    24  H    6.835376   1.094794   1.777635   0.000000
    25  C    3.493089   5.106101   5.884433   5.518886   0.000000
    26  H    3.746916   6.180278   6.925657   6.585970   1.093521
    27  H    3.830746   4.660780   5.318958   5.091008   1.093756
    28  H    4.348320   5.027155   5.931989   5.240819   1.092482
    29  O    5.251639   1.434515   2.069050   1.971467   3.930080
    30  O    4.131187   2.340702   2.636380   3.218495   3.587720
                   26         27         28         29         30
    26  H    0.000000
    27  H    1.770476   0.000000
    28  H    1.763657   1.768180   0.000000
    29  O    4.960728   3.332021   3.950251   0.000000
    30  O    4.536614   2.964581   3.983940   1.411212   0.000000
 Stoichiometry    C9H19O2(2)
 Framework group  C1[X(C9H19O2)]
 Deg. of freedom    84
 Full point group                 C1      NOp   1
 Largest Abelian subgroup         C1      NOp   1
 Largest concise Abelian subgroup C1      NOp   1
                         Standard orientation:                         
 ---------------------------------------------------------------------
 Center     Atomic      Atomic             Coordinates (Angstroms)
 Number     Number       Type             X           Y           Z
 ---------------------------------------------------------------------
      1          6           0        2.204528   -0.834234    1.460432
      2          1           0        2.363305   -1.909474    1.587542
      3          1           0        1.244296   -0.571611    1.899299
      4          1           0        2.975473   -0.317099    2.039442
      5          6           0        2.315123   -0.453110   -0.029112
      6          1           0        3.342423   -0.720218   -0.314828
      7          6           0        1.409976   -1.294380   -0.969943
      8          1           0        1.866725   -1.296446   -1.966291
      9          1           0        1.459219   -2.331908   -0.619560
     10          6           0       -0.070109   -0.900850   -1.163829
     11          1           0       -0.542901   -1.690782   -1.771189
     12          1           0       -0.123802    0.003695   -1.776148
     13          6           0       -0.896539   -0.706907    0.085316
     14          1           0       -0.364703    0.478044    0.563080
     15          1           0       -0.648564   -1.395355    0.897397
     16          6           0       -2.393861   -0.477133   -0.043573
     17          1           0       -2.813697   -1.416503   -0.444962
     18          6           0       -3.034986   -0.240158    1.332697
     19          1           0       -2.672602    0.693126    1.774513
     20          1           0       -4.123016   -0.170219    1.249282
     21          1           0       -2.803475   -1.053928    2.026441
     22          6           0        2.271193    1.066449   -0.276160
     23          1           0        2.842879    1.586190    0.501441
     24          1           0        2.712355    1.305906   -1.249099
     25          6           0       -2.762557    0.648185   -1.023610
     26          1           0       -3.848814    0.760228   -1.080886
     27          1           0       -2.339746    1.601886   -0.694996
     28          1           0       -2.397933    0.448442   -2.033892
     29          8           0        0.977373    1.675658   -0.388981
     30          8           0        0.224623    1.467949    0.786495
 ---------------------------------------------------------------------
 Rotational constants (GHZ):      1.6027317      0.6648548      0.6339497
 Leave Link  202 at Mon Feb 17 01:55:53 2014, MaxMem= 4026531840 cpu:       0.6
 (Enter /usr/caen/gaussian-09revc/g09/l301.exe)
 Standard basis: 6-311G(2d,d,p) (5D, 7F)
 Ernie: Thresh=  0.10000D-02 Tol=  0.10000D-05 Strict=F.
 There are   312 symmetry adapted basis functions of A   symmetry.
 Integral buffers will be    131072 words long.
 Raffenetti 2 integral format.
 Two-electron integral symmetry is turned on.
   312 basis functions,   504 primitive gaussians,   323 cartesian basis functions
    45 alpha electrons       44 beta electrons
       nuclear repulsion energy       697.8121170249 Hartrees.
 IExCor=  402 DFT=T Ex+Corr=B3LYP ExCW=0 ScaHFX=  0.200000
 ScaDFX=  0.800000  0.720000  1.000000  0.810000 ScalE2=  1.000000  1.000000
 IRadAn=      0 IRanWt=     -1 IRanGd=            0 ICorTp=0
 NAtoms=   30 NActive=   30 NUniq=   30 SFac= 1.00D+00 NAtFMM=   60 NAOKFM=F Big=F
 Leave Link  301 at Mon Feb 17 01:55:54 2014, MaxMem= 4026531840 cpu:       0.8
 (Enter /usr/caen/gaussian-09revc/g09/l302.exe)
 NPDir=0 NMtPBC=     1 NCelOv=     1 NCel=       1 NClECP=     1 NCelD=      1
         NCelK=      1 NCelE2=     1 NClLst=     1 CellRange=     0.0.
 One-electron integrals computed using PRISM.
 NBasis=   312 RedAO= T  NBF=   312
 NBsUse=   312 1.00D-06 NBFU=   312
 Precomputing XC quadrature grid using
 IXCGrd= 2 IRadAn=           0 IRanWt=          -1 IRanGd=           0 AccXCQ= 0.00D+00.
 NRdTot=    1906 NPtTot=      242822 NUsed=      256567 NTot=      256599
 NSgBfM=   323   323   323   323   323 NAtAll=    30    30.
 Leave Link  302 at Mon Feb 17 01:55:55 2014, MaxMem= 4026531840 cpu:       6.7
 (Enter /usr/caen/gaussian-09revc/g09/l303.exe)
 DipDrv:  MaxL=1.
 Leave Link  303 at Mon Feb 17 01:55:56 2014, MaxMem= 4026531840 cpu:       1.5
 (Enter /usr/caen/gaussian-09revc/g09/l401.exe)
 Harris functional with IExCor=  402 diagonalized for initial guess.
 ExpMin= 1.03D-01 ExpMax= 8.59D+03 ExpMxC= 1.30D+03 IAcc=1 IRadAn=         1 AccDes= 0.00D+00
 HarFok:  IExCor=  402 AccDes= 0.00D+00 IRadAn=         1 IDoV= 1
 ScaDFX=  1.000000  1.000000  1.000000  1.000000
 FoFCou: FMM=F IPFlag=           0 FMFlag=      100000 FMFlg1=           0
         NFxFlg=           0 DoJE=T BraDBF=F KetDBF=T FulRan=T
         Omega=  0.000000  0.000000  1.000000  0.000000  0.000000 ICntrl=     500 IOpCl=  0
         NMat0=    1 NMatS0=    1 NMatT0=    0 NMatD0=    1 NMtDS0=    0 NMtDT0=    0
         I1Cent=           4 NGrid=           0.
 Petite list used in FoFCou.
 Harris En= -504.887259944710    
 Initial guess orbital symmetries:
 Alpha Orbitals:
       Occupied  (A) (A) (A) (A) (A) (A) (A) (A) (A) (A) (A) (A)
                 (A) (A) (A) (A) (A) (A) (A) (A) (A) (A) (A) (A)
                 (A) (A) (A) (A) (A) (A) (A) (A) (A) (A) (A) (A)
                 (A) (A) (A) (A) (A) (A) (A) (A) (A)
       Virtual   (A) (A) (A) (A) (A) (A) (A) (A) (A) (A) (A) (A)
                 (A) (A) (A) (A) (A) (A) (A) (A) (A) (A) (A) (A)
                 (A) (A) (A) (A) (A) (A) (A) (A) (A) (A) (A) (A)
                 (A) (A) (A) (A) (A) (A) (A) (A) (A) (A) (A) (A)
                 (A) (A) (A) (A) (A) (A) (A) (A) (A) (A) (A) (A)
                 (A) (A) (A) (A) (A) (A) (A) (A) (A) (A) (A) (A)
                 (A) (A) (A) (A) (A) (A) (A) (A) (A) (A) (A) (A)
                 (A) (A) (A) (A) (A) (A) (A) (A) (A) (A) (A) (A)
                 (A) (A) (A) (A) (A) (A) (A) (A) (A) (A) (A) (A)
                 (A) (A) (A) (A) (A) (A) (A) (A) (A) (A) (A) (A)
                 (A) (A) (A) (A) (A) (A) (A) (A) (A) (A) (A) (A)
                 (A) (A) (A) (A) (A) (A) (A) (A) (A) (A) (A) (A)
                 (A) (A) (A) (A) (A) (A) (A) (A) (A) (A) (A) (A)
                 (A) (A) (A) (A) (A) (A) (A) (A) (A) (A) (A) (A)
                 (A) (A) (A) (A) (A) (A) (A) (A) (A) (A) (A) (A)
                 (A) (A) (A) (A) (A) (A) (A) (A) (A) (A) (A) (A)
                 (A) (A) (A) (A) (A) (A) (A) (A) (A) (A) (A) (A)
                 (A) (A) (A) (A) (A) (A) (A) (A) (A) (A) (A) (A)
                 (A) (A) (A) (A) (A) (A) (A) (A) (A) (A) (A) (A)
                 (A) (A) (A) (A) (A) (A) (A) (A) (A) (A) (A) (A)
                 (A) (A) (A) (A) (A) (A) (A) (A) (A) (A) (A) (A)
                 (A) (A) (A) (A) (A) (A) (A) (A) (A) (A) (A) (A)
                 (A) (A) (A)
 Beta  Orbitals:
       Occupied  (A) (A) (A) (A) (A) (A) (A) (A) (A) (A) (A) (A)
                 (A) (A) (A) (A) (A) (A) (A) (A) (A) (A) (A) (A)
                 (A) (A) (A) (A) (A) (A) (A) (A) (A) (A) (A) (A)
                 (A) (A) (A) (A) (A) (A) (A) (A)
       Virtual   (A) (A) (A) (A) (A) (A) (A) (A) (A) (A) (A) (A)
                 (A) (A) (A) (A) (A) (A) (A) (A) (A) (A) (A) (A)
                 (A) (A) (A) (A) (A) (A) (A) (A) (A) (A) (A) (A)
                 (A) (A) (A) (A) (A) (A) (A) (A) (A) (A) (A) (A)
                 (A) (A) (A) (A) (A) (A) (A) (A) (A) (A) (A) (A)
                 (A) (A) (A) (A) (A) (A) (A) (A) (A) (A) (A) (A)
                 (A) (A) (A) (A) (A) (A) (A) (A) (A) (A) (A) (A)
                 (A) (A) (A) (A) (A) (A) (A) (A) (A) (A) (A) (A)
                 (A) (A) (A) (A) (A) (A) (A) (A) (A) (A) (A) (A)
                 (A) (A) (A) (A) (A) (A) (A) (A) (A) (A) (A) (A)
                 (A) (A) (A) (A) (A) (A) (A) (A) (A) (A) (A) (A)
                 (A) (A) (A) (A) (A) (A) (A) (A) (A) (A) (A) (A)
                 (A) (A) (A) (A) (A) (A) (A) (A) (A) (A) (A) (A)
                 (A) (A) (A) (A) (A) (A) (A) (A) (A) (A) (A) (A)
                 (A) (A) (A) (A) (A) (A) (A) (A) (A) (A) (A) (A)
                 (A) (A) (A) (A) (A) (A) (A) (A) (A) (A) (A) (A)
                 (A) (A) (A) (A) (A) (A) (A) (A) (A) (A) (A) (A)
                 (A) (A) (A) (A) (A) (A) (A) (A) (A) (A) (A) (A)
                 (A) (A) (A) (A) (A) (A) (A) (A) (A) (A) (A) (A)
                 (A) (A) (A) (A) (A) (A) (A) (A) (A) (A) (A) (A)
                 (A) (A) (A) (A) (A) (A) (A) (A) (A) (A) (A) (A)
                 (A) (A) (A) (A) (A) (A) (A) (A) (A) (A) (A) (A)
                 (A) (A) (A) (A)
 The electronic state of the initial guess is 2-A.
 Initial guess <Sx>= 0.0000 <Sy>= 0.0000 <Sz>= 0.5000 <S**2>= 0.7500 S= 0.5000
 Leave Link  401 at Mon Feb 17 01:55:57 2014, MaxMem= 4026531840 cpu:       7.5
 (Enter /usr/caen/gaussian-09revc/g09/l502.exe)
 UHF open shell SCF:
 Requested convergence on RMS density matrix=1.00D-08 within 128 cycles.
 Requested convergence on MAX density matrix=1.00D-06.
 Requested convergence on             energy=1.00D-06.
 No special actions if energy rises.
 Using DIIS extrapolation, IDIIS=  1040.
 Integral symmetry usage will be decided dynamically.
       256284 words used for storage of precomputed grid.
 Keep R1 and R2 ints in memory in canonical form, NReq=2755661015.
 IEnd=      592442 IEndB=      592442 NGot=  4026531840 MDV=  1287998061
 LenX=  1287998061 LenY=  1287893291
 Symmetry not used in FoFDir.
 MinBra= 0 MaxBra= 2 Meth= 1.
 IRaf=       0 NMat=   1 IRICut=       1 DoRegI=T DoRafI=F ISym2E= 0 JSym2E=0.
 Integral accuracy reduced to 1.0D-05 until final iterations.

 Cycle   1  Pass 0  IDiag  1:
 E= -504.458755543374    
 DIIS: error= 2.56D-02 at cycle   1 NSaved=   1.
 NSaved= 1 IEnMin= 1 EnMin= -504.458755543374     IErMin= 1 ErrMin= 2.56D-02
 ErrMax= 2.56D-02 EMaxC= 1.00D-01 BMatC= 1.47D+00 BMatP= 1.47D+00
 IDIUse=3 WtCom= 7.44D-01 WtEn= 2.56D-01
 Coeff-Com:  0.100D+01
 Coeff-En:   0.100D+01
 Coeff:      0.100D+01
 Gap=     0.188 Goal=   None    Shift=    0.000
 Gap=     0.205 Goal=   None    Shift=    0.000
 GapD=    0.188 DampG=1.000 DampE=0.500 DampFc=0.5000 IDamp=-1.
 Damping current iteration by 5.00D-01
 RMSDP=3.39D-03 MaxDP=1.21D-01              OVMax= 2.32D-01

 Cycle   2  Pass 0  IDiag  1:
 E= -504.604882499572     Delta-E=       -0.146126956199 Rises=F Damp=T
 DIIS: error= 7.67D-03 at cycle   2 NSaved=   2.
 NSaved= 2 IEnMin= 2 EnMin= -504.604882499572     IErMin= 2 ErrMin= 7.67D-03
 ErrMax= 7.67D-03 EMaxC= 1.00D-01 BMatC= 1.25D-01 BMatP= 1.47D+00
 IDIUse=3 WtCom= 9.23D-01 WtEn= 7.67D-02
 Coeff-Com:  0.101D+00 0.899D+00
 Coeff-En:   0.201D+00 0.799D+00
 Coeff:      0.108D+00 0.892D+00
 Gap=     0.291 Goal=   None    Shift=    0.000
 Gap=     0.217 Goal=   None    Shift=    0.000
 RMSDP=1.00D-03 MaxDP=3.48D-02 DE=-1.46D-01 OVMax= 2.62D-01

 Cycle   3  Pass 0  IDiag  1:
 E= -504.805753151101     Delta-E=       -0.200870651529 Rises=F Damp=F
 DIIS: error= 9.53D-03 at cycle   3 NSaved=   3.
 NSaved= 3 IEnMin= 3 EnMin= -504.805753151101     IErMin= 2 ErrMin= 7.67D-03
 ErrMax= 9.53D-03 EMaxC= 1.00D-01 BMatC= 1.01D-01 BMatP= 1.25D-01
 IDIUse=3 WtCom= 9.05D-01 WtEn= 9.53D-02
 Coeff-Com:  0.156D-03 0.468D+00 0.531D+00
 Coeff-En:   0.000D+00 0.000D+00 0.100D+01
 Coeff:      0.141D-03 0.424D+00 0.576D+00
 Gap=     0.254 Goal=   None    Shift=    0.000
 Gap=     0.165 Goal=   None    Shift=    0.000
 RMSDP=6.40D-04 MaxDP=2.69D-02 DE=-2.01D-01 OVMax= 1.22D-01

 Cycle   4  Pass 0  IDiag  1:
 E= -504.819273267137     Delta-E=       -0.013520116036 Rises=F Damp=F
 DIIS: error= 5.01D-03 at cycle   4 NSaved=   4.
 NSaved= 4 IEnMin= 4 EnMin= -504.819273267137     IErMin= 4 ErrMin= 5.01D-03
 ErrMax= 5.01D-03 EMaxC= 1.00D-01 BMatC= 4.34D-02 BMatP= 1.01D-01
 IDIUse=3 WtCom= 9.50D-01 WtEn= 5.01D-02
 Coeff-Com: -0.130D-01 0.134D+00 0.405D+00 0.474D+00
 Coeff-En:   0.000D+00 0.000D+00 0.310D+00 0.690D+00
 Coeff:     -0.124D-01 0.127D+00 0.400D+00 0.485D+00
 Gap=     0.253 Goal=   None    Shift=    0.000
 Gap=     0.157 Goal=   None    Shift=    0.000
 RMSDP=2.51D-04 MaxDP=1.18D-02 DE=-1.35D-02 OVMax= 4.05D-02

 Cycle   5  Pass 0  IDiag  1:
 E= -504.827586917574     Delta-E=       -0.008313650436 Rises=F Damp=F
 DIIS: error= 1.01D-03 at cycle   5 NSaved=   5.
 NSaved= 5 IEnMin= 5 EnMin= -504.827586917574     IErMin= 5 ErrMin= 1.01D-03
 ErrMax= 1.01D-03 EMaxC= 1.00D-01 BMatC= 1.53D-03 BMatP= 4.34D-02
 IDIUse=3 WtCom= 9.90D-01 WtEn= 1.01D-02
 Coeff-Com: -0.577D-02 0.196D-01 0.160D+00 0.229D+00 0.597D+00
 Coeff-En:   0.000D+00 0.000D+00 0.000D+00 0.000D+00 0.100D+01
 Coeff:     -0.572D-02 0.194D-01 0.159D+00 0.227D+00 0.601D+00
 Gap=     0.245 Goal=   None    Shift=    0.000
 Gap=     0.158 Goal=   None    Shift=    0.000
 RMSDP=6.91D-05 MaxDP=2.81D-03 DE=-8.31D-03 OVMax= 5.29D-03

 Cycle   6  Pass 0  IDiag  1:
 E= -504.827825744335     Delta-E=       -0.000238826761 Rises=F Damp=F
 DIIS: error= 8.98D-04 at cycle   6 NSaved=   6.
 NSaved= 6 IEnMin= 6 EnMin= -504.827825744335     IErMin= 6 ErrMin= 8.98D-04
 ErrMax= 8.98D-04 EMaxC= 1.00D-01 BMatC= 6.19D-04 BMatP= 1.53D-03
 IDIUse=3 WtCom= 9.91D-01 WtEn= 8.98D-03
 Coeff-Com: -0.109D-02-0.816D-02 0.454D-01 0.655D-01 0.399D+00 0.500D+00
 Coeff-En:   0.000D+00 0.000D+00 0.000D+00 0.000D+00 0.199D+00 0.801D+00
 Coeff:     -0.108D-02-0.808D-02 0.450D-01 0.650D-01 0.397D+00 0.502D+00
 Gap=     0.246 Goal=   None    Shift=    0.000
 Gap=     0.159 Goal=   None    Shift=    0.000
 RMSDP=3.31D-05 MaxDP=1.65D-03 DE=-2.39D-04 OVMax= 5.78D-03

 Cycle   7  Pass 0  IDiag  1:
 E= -504.827939555978     Delta-E=       -0.000113811643 Rises=F Damp=F
 DIIS: error= 2.20D-04 at cycle   7 NSaved=   7.
 NSaved= 7 IEnMin= 7 EnMin= -504.827939555978     IErMin= 7 ErrMin= 2.20D-04
 ErrMax= 2.20D-04 EMaxC= 1.00D-01 BMatC= 6.97D-05 BMatP= 6.19D-04
 IDIUse=3 WtCom= 9.98D-01 WtEn= 2.20D-03
 Coeff-Com:  0.129D-02-0.795D-02-0.148D-01-0.339D-01 0.290D-01 0.252D+00
 Coeff-Com:  0.774D+00
 Coeff-En:   0.000D+00 0.000D+00 0.000D+00 0.000D+00 0.000D+00 0.000D+00
 Coeff-En:   0.100D+01
 Coeff:      0.129D-02-0.793D-02-0.148D-01-0.338D-01 0.290D-01 0.252D+00
 Coeff:      0.775D+00
 Gap=     0.246 Goal=   None    Shift=    0.000
 Gap=     0.159 Goal=   None    Shift=    0.000
 RMSDP=1.84D-05 MaxDP=8.60D-04 DE=-1.14D-04 OVMax= 1.82D-03

 Cycle   8  Pass 0  IDiag  1:
 E= -504.827960484730     Delta-E=       -0.000020928752 Rises=F Damp=F
 DIIS: error= 8.88D-05 at cycle   8 NSaved=   8.
 NSaved= 8 IEnMin= 8 EnMin= -504.827960484730     IErMin= 8 ErrMin= 8.88D-05
 ErrMax= 8.88D-05 EMaxC= 1.00D-01 BMatC= 1.04D-05 BMatP= 6.97D-05
 IDIUse=1 WtCom= 1.00D+00 WtEn= 0.00D+00
 Coeff-Com:  0.870D-03-0.148D-02-0.142D-01-0.304D-01-0.713D-01 0.110D-01
 Coeff-Com:  0.356D+00 0.749D+00
 Coeff:      0.870D-03-0.148D-02-0.142D-01-0.304D-01-0.713D-01 0.110D-01
 Coeff:      0.356D+00 0.749D+00
 Gap=     0.246 Goal=   None    Shift=    0.000
 Gap=     0.159 Goal=   None    Shift=    0.000
 RMSDP=7.49D-06 MaxDP=2.96D-04 DE=-2.09D-05 OVMax= 1.31D-03

 Initial convergence to 1.0D-05 achieved.  Increase integral accuracy.
 Cycle   9  Pass 1  IDiag  1:
 E= -504.828057935446     Delta-E=       -0.000097450716 Rises=F Damp=F
 DIIS: error= 2.44D-05 at cycle   1 NSaved=   1.
 NSaved= 1 IEnMin= 1 EnMin= -504.828057935446     IErMin= 1 ErrMin= 2.44D-05
 ErrMax= 2.44D-05 EMaxC= 1.00D-01 BMatC= 2.09D-06 BMatP= 2.09D-06
 IDIUse=1 WtCom= 1.00D+00 WtEn= 0.00D+00
 Coeff-Com:  0.100D+01
 Coeff:      0.100D+01
 Gap=     0.246 Goal=   None    Shift=    0.000
 Gap=     0.159 Goal=   None    Shift=    0.000
 RMSDP=7.49D-06 MaxDP=2.96D-04 DE=-9.75D-05 OVMax= 2.08D-04

 Cycle  10  Pass 1  IDiag  1:
 E= -504.828058301970     Delta-E=       -0.000000366524 Rises=F Damp=F
 DIIS: error= 2.40D-05 at cycle   2 NSaved=   2.
 NSaved= 2 IEnMin= 2 EnMin= -504.828058301970     IErMin= 2 ErrMin= 2.40D-05
 ErrMax= 2.40D-05 EMaxC= 1.00D-01 BMatC= 1.54D-06 BMatP= 2.09D-06
 IDIUse=1 WtCom= 1.00D+00 WtEn= 0.00D+00
 Coeff-Com:  0.452D+00 0.548D+00
 Coeff:      0.452D+00 0.548D+00
 Gap=     0.246 Goal=   None    Shift=    0.000
 Gap=     0.159 Goal=   None    Shift=    0.000
 RMSDP=1.86D-06 MaxDP=1.03D-04 DE=-3.67D-07 OVMax= 1.46D-04

 Cycle  11  Pass 1  IDiag  1:
 E= -504.828058631509     Delta-E=       -0.000000329539 Rises=F Damp=F
 DIIS: error= 8.42D-06 at cycle   3 NSaved=   3.
 NSaved= 3 IEnMin= 3 EnMin= -504.828058631509     IErMin= 3 ErrMin= 8.42D-06
 ErrMax= 8.42D-06 EMaxC= 1.00D-01 BMatC= 1.45D-07 BMatP= 1.54D-06
 IDIUse=1 WtCom= 1.00D+00 WtEn= 0.00D+00
 Coeff-Com: -0.183D-01 0.203D+00 0.815D+00
 Coeff:     -0.183D-01 0.203D+00 0.815D+00
 Gap=     0.246 Goal=   None    Shift=    0.000
 Gap=     0.159 Goal=   None    Shift=    0.000
 RMSDP=7.70D-07 MaxDP=2.78D-05 DE=-3.30D-07 OVMax= 5.97D-05

 Cycle  12  Pass 1  IDiag  1:
 E= -504.828058668715     Delta-E=       -0.000000037206 Rises=F Damp=F
 DIIS: error= 7.72D-06 at cycle   4 NSaved=   4.
 NSaved= 4 IEnMin= 4 EnMin= -504.828058668715     IErMin= 4 ErrMin= 7.72D-06
 ErrMax= 7.72D-06 EMaxC= 1.00D-01 BMatC= 3.72D-08 BMatP= 1.45D-07
 IDIUse=1 WtCom= 1.00D+00 WtEn= 0.00D+00
 Coeff-Com: -0.442D-01 0.647D-01 0.436D+00 0.543D+00
 Coeff:     -0.442D-01 0.647D-01 0.436D+00 0.543D+00
 Gap=     0.246 Goal=   None    Shift=    0.000
 Gap=     0.159 Goal=   None    Shift=    0.000
 RMSDP=3.65D-07 MaxDP=1.58D-05 DE=-3.72D-08 OVMax= 4.93D-05

 Cycle  13  Pass 1  IDiag  1:
 E= -504.828058678131     Delta-E=       -0.000000009416 Rises=F Damp=F
 DIIS: error= 4.57D-06 at cycle   5 NSaved=   5.
 NSaved= 5 IEnMin= 5 EnMin= -504.828058678131     IErMin= 5 ErrMin= 4.57D-06
 ErrMax= 4.57D-06 EMaxC= 1.00D-01 BMatC= 1.15D-08 BMatP= 3.72D-08
 IDIUse=1 WtCom= 1.00D+00 WtEn= 0.00D+00
 Coeff-Com: -0.236D-01-0.196D-01 0.250D-01 0.343D+00 0.675D+00
 Coeff:     -0.236D-01-0.196D-01 0.250D-01 0.343D+00 0.675D+00
 Gap=     0.246 Goal=   None    Shift=    0.000
 Gap=     0.159 Goal=   None    Shift=    0.000
 RMSDP=2.12D-07 MaxDP=1.12D-05 DE=-9.42D-09 OVMax= 2.01D-05

 Cycle  14  Pass 1  IDiag  1:
 E= -504.828058681745     Delta-E=       -0.000000003615 Rises=F Damp=F
 DIIS: error= 2.47D-06 at cycle   6 NSaved=   6.
 NSaved= 6 IEnMin= 6 EnMin= -504.828058681745     IErMin= 6 ErrMin= 2.47D-06
 ErrMax= 2.47D-06 EMaxC= 1.00D-01 BMatC= 2.88D-09 BMatP= 1.15D-08
 IDIUse=1 WtCom= 1.00D+00 WtEn= 0.00D+00
 Coeff-Com:  0.419D-02-0.421D-01-0.184D+00-0.180D-01 0.413D+00 0.827D+00
 Coeff:      0.419D-02-0.421D-01-0.184D+00-0.180D-01 0.413D+00 0.827D+00
 Gap=     0.246 Goal=   None    Shift=    0.000
 Gap=     0.159 Goal=   None    Shift=    0.000
 RMSDP=1.52D-07 MaxDP=1.03D-05 DE=-3.61D-09 OVMax= 1.56D-05

 Cycle  15  Pass 1  IDiag  1:
 E= -504.828058682839     Delta-E=       -0.000000001093 Rises=F Damp=F
 DIIS: error= 9.10D-07 at cycle   7 NSaved=   7.
 NSaved= 7 IEnMin= 7 EnMin= -504.828058682839     IErMin= 7 ErrMin= 9.10D-07
 ErrMax= 9.10D-07 EMaxC= 1.00D-01 BMatC= 8.66D-10 BMatP= 2.88D-09
 IDIUse=1 WtCom= 1.00D+00 WtEn= 0.00D+00
 Coeff-Com:  0.500D-02-0.250D-01-0.120D+00-0.435D-01 0.204D+00 0.534D+00
 Coeff-Com:  0.446D+00
 Coeff:      0.500D-02-0.250D-01-0.120D+00-0.435D-01 0.204D+00 0.534D+00
 Coeff:      0.446D+00
 Gap=     0.246 Goal=   None    Shift=    0.000
 Gap=     0.159 Goal=   None    Shift=    0.000
 RMSDP=4.28D-08 MaxDP=2.39D-06 DE=-1.09D-09 OVMax= 7.58D-06

 Cycle  16  Pass 1  IDiag  1:
 E= -504.828058683027     Delta-E=       -0.000000000188 Rises=F Damp=F
 DIIS: error= 2.97D-07 at cycle   8 NSaved=   8.
 NSaved= 8 IEnMin= 8 EnMin= -504.828058683027     IErMin= 8 ErrMin= 2.97D-07
 ErrMax= 2.97D-07 EMaxC= 1.00D-01 BMatC= 5.20D-11 BMatP= 8.66D-10
 IDIUse=1 WtCom= 1.00D+00 WtEn= 0.00D+00
 Coeff-Com:  0.155D-02-0.455D-02-0.238D-01-0.184D-01 0.243D-01 0.859D-01
 Coeff-Com:  0.192D+00 0.743D+00
 Coeff:      0.155D-02-0.455D-02-0.238D-01-0.184D-01 0.243D-01 0.859D-01
 Coeff:      0.192D+00 0.743D+00
 Gap=     0.246 Goal=   None    Shift=    0.000
 Gap=     0.159 Goal=   None    Shift=    0.000
 RMSDP=1.75D-08 MaxDP=9.32D-07 DE=-1.88D-10 OVMax= 2.61D-06

 Cycle  17  Pass 1  IDiag  1:
 E= -504.828058683042     Delta-E=       -0.000000000015 Rises=F Damp=F
 DIIS: error= 8.98D-08 at cycle   9 NSaved=   9.
 NSaved= 9 IEnMin= 9 EnMin= -504.828058683042     IErMin= 9 ErrMin= 8.98D-08
 ErrMax= 8.98D-08 EMaxC= 1.00D-01 BMatC= 1.47D-11 BMatP= 5.20D-11
 IDIUse=1 WtCom= 1.00D+00 WtEn= 0.00D+00
 Coeff-Com: -0.428D-03 0.336D-02 0.158D-01 0.156D-02-0.308D-01-0.809D-01
 Coeff-Com: -0.244D-01 0.374D+00 0.742D+00
 Coeff:     -0.428D-03 0.336D-02 0.158D-01 0.156D-02-0.308D-01-0.809D-01
 Coeff:     -0.244D-01 0.374D+00 0.742D+00
 Gap=     0.246 Goal=   None    Shift=    0.000
 Gap=     0.159 Goal=   None    Shift=    0.000
 RMSDP=8.84D-09 MaxDP=4.21D-07 DE=-1.52D-11 OVMax= 1.16D-06

 SCF Done:  E(UB3LYP) =  -504.828058683     A.U. after   17 cycles
             Convg  =    0.8836D-08             -V/T =  2.0043
 <Sx>= 0.0000 <Sy>= 0.0000 <Sz>= 0.5000 <S**2>= 0.7565 S= 0.5032
 <L.S>= 0.000000000000E+00
 KE= 5.026622251773D+02 PE=-2.571896059525D+03 EE= 8.665936586399D+02
 Annihilation of the first spin contaminant:
 S**2 before annihilation     0.7565,   after     0.7500
 Leave Link  502 at Mon Feb 17 01:57:39 2014, MaxMem= 4026531840 cpu:     807.4
 (Enter /usr/caen/gaussian-09revc/g09/l801.exe)
 Range of M.O.s used for correlation:     1   312
 NBasis=   312 NAE=    45 NBE=    44 NFC=     0 NFV=     0
 NROrb=    312 NOA=    45 NOB=    44 NVA=   267 NVB=   268
 Leave Link  801 at Mon Feb 17 01:57:40 2014, MaxMem= 4026531840 cpu:       0.3
 (Enter /usr/caen/gaussian-09revc/g09/l1101.exe)
 Using compressed storage, NAtomX=    30.
 Will process  31 centers per pass.
 Leave Link 1101 at Mon Feb 17 01:57:41 2014, MaxMem= 4026531840 cpu:       5.3
 (Enter /usr/caen/gaussian-09revc/g09/l1102.exe)
 Symmetrizing basis deriv contribution to polar:
 IMax=3 JMax=2 DiffMx= 0.00D+00
 Leave Link 1102 at Mon Feb 17 01:57:41 2014, MaxMem= 4026531840 cpu:       1.3
 (Enter /usr/caen/gaussian-09revc/g09/l1110.exe)
 Forming Gx(P) for the SCF density, NAtomX=    30.
 Integral derivatives from FoFDir/FoFCou, PRISM(SPDF).
 Do as many integral derivatives as possible in FoFDir.
 G2DrvN: MDV=    4026531496.
 G2DrvN: will do    31 centers at a time, making    1 passes doing MaxLOS=2.
 Calling FoFCou, ICntrl=  3107 FMM=F I1Cent=   0 AccDes= 0.00D+00.
 FoFCou: FMM=F IPFlag=           0 FMFlag=      100000 FMFlg1=           0
         NFxFlg=           0 DoJE=F BraDBF=F KetDBF=F FulRan=T
         Omega=  0.000000  0.000000  1.000000  0.000000  0.000000 ICntrl=    3107 IOpCl=  1
         NMat0=    1 NMatS0=    1 NMatT0=    0 NMatD0=    1 NMtDS0=    0 NMtDT0=    0
         I1Cent=           0 NGrid=           0.
 Symmetry not used in FoFCou.
 FoFDir/FoFCou used for L=0 through L=2.
 End of G2Drv Frequency-dependent properties file   721 does not exist.
 End of G2Drv Frequency-dependent properties file   722 does not exist.
 Leave Link 1110 at Mon Feb 17 02:00:21 2014, MaxMem= 4026531840 cpu:    1272.8
 (Enter /usr/caen/gaussian-09revc/g09/l1002.exe)
 Minotr:  UHF open shell wavefunction.
          IDoAtm=111111111111111111111111111111
          Direct CPHF calculation.
          Differentiating once with respect to nuclear coordinates.
          Requested convergence is 1.0D-06 RMS, and 1.0D-05 maximum.
          Secondary convergence is 1.0D-12 RMS, and 1.0D-12 maximum.
          NewPWx=T KeepS1=F KeepF1=F KeepIn=T MapXYZ=F SortEE=F KeepMc=T.
          MDV=    4026531536 using IRadAn=       2.
 Generate precomputed XC quadrature information.
          Keep R1 and R2 ints in memory in canonical form, NReq=2738891850.
 Symmetry not used in FoFDir.
 MinBra= 0 MaxBra= 2 Meth= 1.
 IRaf=       0 NMat=   1 IRICut=       1 DoRegI=T DoRafI=F ISym2E= 0 JSym2E=0.
          Solving linear equations simultaneously, MaxMat=       0.
          There are    93 degrees of freedom in the 1st order CPHF.  IDoFFX=5.
     87 vectors produced by pass  0 Test12= 2.56D-10 1.08D-07 XBig12= 3.25D-01 2.95D-01.
 AX will form    87 AO Fock derivatives at one time.
     87 vectors produced by pass  1 Test12= 2.56D-10 1.08D-07 XBig12= 1.02D-02 1.64D-02.
     87 vectors produced by pass  2 Test12= 2.56D-10 1.08D-07 XBig12= 6.23D-05 1.01D-03.
     87 vectors produced by pass  3 Test12= 2.56D-10 1.08D-07 XBig12= 2.86D-07 6.17D-05.
     77 vectors produced by pass  4 Test12= 2.56D-10 1.08D-07 XBig12= 1.60D-09 3.84D-06.
     13 vectors produced by pass  5 Test12= 2.56D-10 1.08D-07 XBig12= 8.98D-12 2.64D-07.
 Inverted reduced A of dimension   438 with in-core refinement.
 End of Minotr Frequency-dependent properties file   721 does not exist.
 End of Minotr Frequency-dependent properties file   722 does not exist.
 Leave Link 1002 at Mon Feb 17 02:04:08 2014, MaxMem= 4026531840 cpu:    1814.4
 (Enter /usr/caen/gaussian-09revc/g09/l601.exe)
 Copying SCF densities to generalized density rwf, IOpCl= 1 IROHF=0.

 **********************************************************************

            Population analysis using the SCF density.

 **********************************************************************

 Orbital symmetries:
 Alpha Orbitals:
       Occupied  (A) (A) (A) (A) (A) (A) (A) (A) (A) (A) (A) (A)
                 (A) (A) (A) (A) (A) (A) (A) (A) (A) (A) (A) (A)
                 (A) (A) (A) (A) (A) (A) (A) (A) (A) (A) (A) (A)
                 (A) (A) (A) (A) (A) (A) (A) (A) (A)
       Virtual   (A) (A) (A) (A) (A) (A) (A) (A) (A) (A) (A) (A)
                 (A) (A) (A) (A) (A) (A) (A) (A) (A) (A) (A) (A)
                 (A) (A) (A) (A) (A) (A) (A) (A) (A) (A) (A) (A)
                 (A) (A) (A) (A) (A) (A) (A) (A) (A) (A) (A) (A)
                 (A) (A) (A) (A) (A) (A) (A) (A) (A) (A) (A) (A)
                 (A) (A) (A) (A) (A) (A) (A) (A) (A) (A) (A) (A)
                 (A) (A) (A) (A) (A) (A) (A) (A) (A) (A) (A) (A)
                 (A) (A) (A) (A) (A) (A) (A) (A) (A) (A) (A) (A)
                 (A) (A) (A) (A) (A) (A) (A) (A) (A) (A) (A) (A)
                 (A) (A) (A) (A) (A) (A) (A) (A) (A) (A) (A) (A)
                 (A) (A) (A) (A) (A) (A) (A) (A) (A) (A) (A) (A)
                 (A) (A) (A) (A) (A) (A) (A) (A) (A) (A) (A) (A)
                 (A) (A) (A) (A) (A) (A) (A) (A) (A) (A) (A) (A)
                 (A) (A) (A) (A) (A) (A) (A) (A) (A) (A) (A) (A)
                 (A) (A) (A) (A) (A) (A) (A) (A) (A) (A) (A) (A)
                 (A) (A) (A) (A) (A) (A) (A) (A) (A) (A) (A) (A)
                 (A) (A) (A) (A) (A) (A) (A) (A) (A) (A) (A) (A)
                 (A) (A) (A) (A) (A) (A) (A) (A) (A) (A) (A) (A)
                 (A) (A) (A) (A) (A) (A) (A) (A) (A) (A) (A) (A)
                 (A) (A) (A) (A) (A) (A) (A) (A) (A) (A) (A) (A)
                 (A) (A) (A) (A) (A) (A) (A) (A) (A) (A) (A) (A)
                 (A) (A) (A) (A) (A) (A) (A) (A) (A) (A) (A) (A)
                 (A) (A) (A)
 Beta  Orbitals:
       Occupied  (A) (A) (A) (A) (A) (A) (A) (A) (A) (A) (A) (A)
                 (A) (A) (A) (A) (A) (A) (A) (A) (A) (A) (A) (A)
                 (A) (A) (A) (A) (A) (A) (A) (A) (A) (A) (A) (A)
                 (A) (A) (A) (A) (A) (A) (A) (A)
       Virtual   (A) (A) (A) (A) (A) (A) (A) (A) (A) (A) (A) (A)
                 (A) (A) (A) (A) (A) (A) (A) (A) (A) (A) (A) (A)
                 (A) (A) (A) (A) (A) (A) (A) (A) (A) (A) (A) (A)
                 (A) (A) (A) (A) (A) (A) (A) (A) (A) (A) (A) (A)
                 (A) (A) (A) (A) (A) (A) (A) (A) (A) (A) (A) (A)
                 (A) (A) (A) (A) (A) (A) (A) (A) (A) (A) (A) (A)
                 (A) (A) (A) (A) (A) (A) (A) (A) (A) (A) (A) (A)
                 (A) (A) (A) (A) (A) (A) (A) (A) (A) (A) (A) (A)
                 (A) (A) (A) (A) (A) (A) (A) (A) (A) (A) (A) (A)
                 (A) (A) (A) (A) (A) (A) (A) (A) (A) (A) (A) (A)
                 (A) (A) (A) (A) (A) (A) (A) (A) (A) (A) (A) (A)
                 (A) (A) (A) (A) (A) (A) (A) (A) (A) (A) (A) (A)
                 (A) (A) (A) (A) (A) (A) (A) (A) (A) (A) (A) (A)
                 (A) (A) (A) (A) (A) (A) (A) (A) (A) (A) (A) (A)
                 (A) (A) (A) (A) (A) (A) (A) (A) (A) (A) (A) (A)
                 (A) (A) (A) (A) (A) (A) (A) (A) (A) (A) (A) (A)
                 (A) (A) (A) (A) (A) (A) (A) (A) (A) (A) (A) (A)
                 (A) (A) (A) (A) (A) (A) (A) (A) (A) (A) (A) (A)
                 (A) (A) (A) (A) (A) (A) (A) (A) (A) (A) (A) (A)
                 (A) (A) (A) (A) (A) (A) (A) (A) (A) (A) (A) (A)
                 (A) (A) (A) (A) (A) (A) (A) (A) (A) (A) (A) (A)
                 (A) (A) (A) (A) (A) (A) (A) (A) (A) (A) (A) (A)
                 (A) (A) (A) (A)
 The electronic state is 2-A.
 Alpha  occ. eigenvalues --  -19.17712 -19.16350 -10.22016 -10.18506 -10.18444
 Alpha  occ. eigenvalues --  -10.18220 -10.17516 -10.17373 -10.15862 -10.15800
 Alpha  occ. eigenvalues --  -10.15567  -1.12068  -0.88772  -0.83032  -0.80074
 Alpha  occ. eigenvalues --   -0.75330  -0.68876  -0.68584  -0.67442  -0.61526
 Alpha  occ. eigenvalues --   -0.56824  -0.56305  -0.52072  -0.48961  -0.47274
 Alpha  occ. eigenvalues --   -0.46144  -0.44995  -0.43997  -0.43547  -0.42275
 Alpha  occ. eigenvalues --   -0.41723  -0.40757  -0.39285  -0.38617  -0.37362
 Alpha  occ. eigenvalues --   -0.35911  -0.35584  -0.34560  -0.33896  -0.33636
 Alpha  occ. eigenvalues --   -0.32504  -0.31978  -0.28794  -0.27538  -0.21608
 Alpha virt. eigenvalues --    0.03006   0.04099   0.04778   0.06173   0.07131
 Alpha virt. eigenvalues --    0.08546   0.08912   0.09184   0.09876   0.10134
 Alpha virt. eigenvalues --    0.10883   0.11626   0.12586   0.13019   0.13980
 Alpha virt. eigenvalues --    0.14578   0.15332   0.15677   0.16309   0.17773
 Alpha virt. eigenvalues --    0.18699   0.19358   0.21245   0.22519   0.23057
 Alpha virt. eigenvalues --    0.24412   0.25410   0.26141   0.27934   0.28621
 Alpha virt. eigenvalues --    0.29243   0.30627   0.32758   0.33313   0.34807
 Alpha virt. eigenvalues --    0.35130   0.35811   0.37621   0.40660   0.41523
 Alpha virt. eigenvalues --    0.43465   0.45005   0.45443   0.46210   0.47990
 Alpha virt. eigenvalues --    0.49549   0.50981   0.51621   0.52656   0.53918
 Alpha virt. eigenvalues --    0.55090   0.55129   0.57057   0.57311   0.57721
 Alpha virt. eigenvalues --    0.57989   0.58487   0.58792   0.59416   0.59800
 Alpha virt. eigenvalues --    0.59937   0.60400   0.61073   0.61525   0.62729
 Alpha virt. eigenvalues --    0.62928   0.63857   0.64121   0.65850   0.65940
 Alpha virt. eigenvalues --    0.67076   0.69005   0.70442   0.72112   0.72569
 Alpha virt. eigenvalues --    0.78566   0.80590   0.83019   0.83436   0.88101
 Alpha virt. eigenvalues --    0.90393   0.92267   0.94347   0.95819   0.99097
 Alpha virt. eigenvalues --    1.01632   1.02027   1.03569   1.06018   1.07763
 Alpha virt. eigenvalues --    1.09984   1.12615   1.13521   1.15105   1.17805
 Alpha virt. eigenvalues --    1.19722   1.22393   1.24173   1.26991   1.29131
 Alpha virt. eigenvalues --    1.32851   1.34778   1.37162   1.38696   1.41203
 Alpha virt. eigenvalues --    1.41614   1.43825   1.44874   1.45544   1.46321
 Alpha virt. eigenvalues --    1.47456   1.48624   1.49491   1.50983   1.51131
 Alpha virt. eigenvalues --    1.51789   1.52517   1.53746   1.55543   1.56642
 Alpha virt. eigenvalues --    1.57589   1.57711   1.58724   1.59838   1.60461
 Alpha virt. eigenvalues --    1.60985   1.61543   1.63279   1.63680   1.64402
 Alpha virt. eigenvalues --    1.64943   1.66081   1.68969   1.69765   1.70002
 Alpha virt. eigenvalues --    1.70572   1.71450   1.73890   1.75314   1.76338
 Alpha virt. eigenvalues --    1.77359   1.77683   1.79829   1.81082   1.82913
 Alpha virt. eigenvalues --    1.84412   1.86729   1.88444   1.89862   1.93114
 Alpha virt. eigenvalues --    1.96427   1.98859   1.99309   2.02675   2.03865
 Alpha virt. eigenvalues --    2.07010   2.07399   2.08826   2.09328   2.11715
 Alpha virt. eigenvalues --    2.12304   2.14701   2.15773   2.18516   2.19756
 Alpha virt. eigenvalues --    2.21414   2.22728   2.24997   2.26536   2.30324
 Alpha virt. eigenvalues --    2.31106   2.33631   2.35605   2.36228   2.36696
 Alpha virt. eigenvalues --    2.38669   2.39521   2.40057   2.42671   2.44191
 Alpha virt. eigenvalues --    2.46905   2.47283   2.48080   2.49393   2.49818
 Alpha virt. eigenvalues --    2.50942   2.51377   2.52147   2.54638   2.55262
 Alpha virt. eigenvalues --    2.56031   2.57045   2.58203   2.61048   2.61655
 Alpha virt. eigenvalues --    2.62990   2.64125   2.65015   2.66141   2.67506
 Alpha virt. eigenvalues --    2.68813   2.70546   2.72532   2.73388   2.75305
 Alpha virt. eigenvalues --    2.77049   2.78423   2.81194   2.83094   2.84196
 Alpha virt. eigenvalues --    2.85298   2.86971   2.89299   2.91786   2.92310
 Alpha virt. eigenvalues --    2.93728   2.98836   2.99904   3.04636   3.07157
 Alpha virt. eigenvalues --    3.10303   3.13646   3.16933   3.20036   3.23397
 Alpha virt. eigenvalues --    3.33642   3.37225   3.39114   3.42284   3.48558
 Alpha virt. eigenvalues --    3.67329   3.74623   3.77969   3.78497   3.79361
 Alpha virt. eigenvalues --    3.80829   3.81418   3.81818   3.83555   3.85073
 Alpha virt. eigenvalues --    3.87702   3.93234   3.95584   3.99024   4.06084
 Alpha virt. eigenvalues --    4.15511   4.28133   4.29060   4.30302   4.43474
 Alpha virt. eigenvalues --    4.75032   4.91667   4.94370   5.22569   5.34831
 Alpha virt. eigenvalues --    5.80747  23.77368  23.80312  23.80601  23.82453
 Alpha virt. eigenvalues --   23.89038  23.90140  23.93680  23.94154  23.94677
 Alpha virt. eigenvalues --   49.80379  49.86857
  Beta  occ. eigenvalues --  -19.17501 -19.15208 -10.22026 -10.18496 -10.18241
  Beta  occ. eigenvalues --  -10.17546 -10.17514 -10.17392 -10.15852 -10.15801
  Beta  occ. eigenvalues --  -10.15554  -1.10847  -0.87102  -0.82447  -0.79826
  Beta  occ. eigenvalues --   -0.75058  -0.68561  -0.68144  -0.67201  -0.61162
  Beta  occ. eigenvalues --   -0.56124  -0.55618  -0.50988  -0.48794  -0.46790
  Beta  occ. eigenvalues --   -0.45832  -0.44715  -0.43410  -0.42380  -0.41743
  Beta  occ. eigenvalues --   -0.41355  -0.40218  -0.38982  -0.38587  -0.37244
  Beta  occ. eigenvalues --   -0.35629  -0.35287  -0.34089  -0.33677  -0.32957
  Beta  occ. eigenvalues --   -0.32279  -0.31752  -0.26979  -0.26450
  Beta virt. eigenvalues --   -0.10513   0.03063   0.04408   0.05177   0.06298
  Beta virt. eigenvalues --    0.07314   0.08584   0.08978   0.09236   0.09942
  Beta virt. eigenvalues --    0.10183   0.10982   0.11724   0.12711   0.13192
  Beta virt. eigenvalues --    0.14124   0.14678   0.15464   0.15719   0.16379
  Beta virt. eigenvalues --    0.17897   0.18946   0.19453   0.21408   0.22873
  Beta virt. eigenvalues --    0.23370   0.24591   0.25537   0.27386   0.28134
  Beta virt. eigenvalues --    0.28715   0.29361   0.30705   0.32903   0.33580
  Beta virt. eigenvalues --    0.34975   0.35428   0.36069   0.38000   0.40866
  Beta virt. eigenvalues --    0.41704   0.43516   0.45078   0.45568   0.46437
  Beta virt. eigenvalues --    0.48075   0.50093   0.51420   0.51737   0.53541
  Beta virt. eigenvalues --    0.54281   0.55352   0.55419   0.57104   0.57437
  Beta virt. eigenvalues --    0.57881   0.58062   0.58707   0.58899   0.59503
  Beta virt. eigenvalues --    0.59872   0.60051   0.60635   0.61166   0.61662
  Beta virt. eigenvalues --    0.62792   0.63011   0.63923   0.64425   0.66027
  Beta virt. eigenvalues --    0.66311   0.67216   0.69171   0.70515   0.72436
  Beta virt. eigenvalues --    0.72935   0.78696   0.80879   0.83677   0.83910
  Beta virt. eigenvalues --    0.88511   0.90605   0.92612   0.94582   0.96354
  Beta virt. eigenvalues --    0.99225   1.01773   1.02563   1.03900   1.06171
  Beta virt. eigenvalues --    1.08027   1.10523   1.12909   1.13684   1.15478
  Beta virt. eigenvalues --    1.17949   1.19973   1.22599   1.24285   1.27221
  Beta virt. eigenvalues --    1.29350   1.33103   1.34911   1.37298   1.39096
  Beta virt. eigenvalues --    1.41346   1.41963   1.44289   1.45020   1.45772
  Beta virt. eigenvalues --    1.46387   1.47874   1.48710   1.49614   1.51050
  Beta virt. eigenvalues --    1.51217   1.52160   1.52723   1.54038   1.55691
  Beta virt. eigenvalues --    1.56761   1.57848   1.58225   1.58953   1.60034
  Beta virt. eigenvalues --    1.60672   1.61428   1.61654   1.63379   1.63929
  Beta virt. eigenvalues --    1.64537   1.65011   1.66229   1.69115   1.69961
  Beta virt. eigenvalues --    1.70179   1.70906   1.71566   1.74171   1.75521
  Beta virt. eigenvalues --    1.76498   1.77658   1.77887   1.79991   1.81236
  Beta virt. eigenvalues --    1.83055   1.84739   1.86939   1.88916   1.89943
  Beta virt. eigenvalues --    1.93250   1.96585   1.98939   1.99714   2.02858
  Beta virt. eigenvalues --    2.04168   2.07156   2.07849   2.09161   2.09559
  Beta virt. eigenvalues --    2.11941   2.12653   2.15190   2.16339   2.18754
  Beta virt. eigenvalues --    2.20168   2.21634   2.22897   2.25253   2.26737
  Beta virt. eigenvalues --    2.30469   2.31425   2.33848   2.35737   2.36328
  Beta virt. eigenvalues --    2.37025   2.38798   2.39666   2.40332   2.42811
  Beta virt. eigenvalues --    2.44365   2.47113   2.47381   2.48231   2.49518
  Beta virt. eigenvalues --    2.49993   2.51057   2.51628   2.52293   2.54791
  Beta virt. eigenvalues --    2.55467   2.56182   2.57468   2.58477   2.61274
  Beta virt. eigenvalues --    2.61863   2.63123   2.64465   2.65276   2.66389
  Beta virt. eigenvalues --    2.67867   2.69194   2.70754   2.72689   2.73469
  Beta virt. eigenvalues --    2.75506   2.77265   2.78493   2.81494   2.83184
  Beta virt. eigenvalues --    2.84401   2.85521   2.87250   2.89509   2.92122
  Beta virt. eigenvalues --    2.92710   2.94053   2.99042   3.00732   3.05195
  Beta virt. eigenvalues --    3.07902   3.10461   3.14048   3.17300   3.20314
  Beta virt. eigenvalues --    3.25213   3.33991   3.38001   3.40479   3.42757
  Beta virt. eigenvalues --    3.49091   3.67798   3.74789   3.78039   3.78564
  Beta virt. eigenvalues --    3.79441   3.81046   3.81442   3.82214   3.83894
  Beta virt. eigenvalues --    3.85314   3.88580   3.93594   3.96712   3.99151
  Beta virt. eigenvalues --    4.06629   4.15997   4.28201   4.29086   4.30566
  Beta virt. eigenvalues --    4.43843   4.75541   4.92638   4.95256   5.24808
  Beta virt. eigenvalues --    5.36383   5.81524  23.77368  23.80311  23.80981
  Beta virt. eigenvalues --   23.82898  23.89059  23.90239  23.93700  23.94162
  Beta virt. eigenvalues --   23.94715  49.81192  49.87390
          Condensed to atoms (all electrons):
              1          2          3          4          5          6
     1  C    4.892137   0.398472   0.404114   0.399073   0.351900  -0.044536
     2  H    0.398472   0.597391  -0.027999  -0.028279  -0.035041  -0.008276
     3  H    0.404114  -0.027999   0.561098  -0.027924  -0.037017   0.008631
     4  H    0.399073  -0.028279  -0.027924   0.585903  -0.029154  -0.007829
     5  C    0.351900  -0.035041  -0.037017  -0.029154   5.226290   0.396662
     6  H   -0.044536  -0.008276   0.008631  -0.007829   0.396662   0.620455
     7  C   -0.066118  -0.007118  -0.003597   0.007902   0.336873  -0.037617
     8  H    0.008356   0.000255  -0.000442  -0.000499  -0.032984  -0.012967
     9  H   -0.009182   0.004340  -0.000224   0.000230  -0.041466  -0.003411
    10  C   -0.002006  -0.000208   0.001756  -0.000288  -0.055516   0.007735
    11  H   -0.000474  -0.000036   0.000027   0.000040   0.007811  -0.000336
    12  H   -0.000274   0.000035   0.000194   0.000032  -0.008672  -0.000310
    13  C   -0.002407  -0.000051   0.002694   0.000102   0.000240  -0.000156
    14  H   -0.004646   0.000236   0.000064   0.000091   0.006037  -0.000165
    15  H    0.000792   0.000023  -0.002476   0.000176  -0.002449  -0.000090
    16  C    0.000158  -0.000035   0.000474  -0.000008  -0.000154   0.000029
    17  H   -0.000023   0.000000   0.000004   0.000001   0.000043   0.000000
    18  C   -0.000024   0.000003   0.000206  -0.000001   0.000018  -0.000001
    19  H    0.000003  -0.000003   0.000044  -0.000001  -0.000018   0.000000
    20  H    0.000000   0.000000  -0.000004   0.000000   0.000000   0.000000
    21  H   -0.000023   0.000001   0.000084   0.000001   0.000002   0.000000
    22  C   -0.065471   0.007498  -0.003922  -0.006557   0.313076  -0.033988
    23  H   -0.011118   0.000111   0.000929   0.005103  -0.058359   0.000716
    24  H    0.008518  -0.000325   0.000096  -0.000012  -0.031503  -0.008126
    25  C   -0.000001   0.000000  -0.000027   0.000001  -0.000041   0.000000
    26  H    0.000000   0.000000   0.000001   0.000000   0.000000   0.000000
    27  H    0.000007  -0.000001  -0.000068   0.000000  -0.000032  -0.000002
    28  H   -0.000001   0.000000  -0.000005   0.000000   0.000042   0.000000
    29  O    0.000194  -0.000209   0.000056  -0.000163  -0.053611   0.004445
    30  O   -0.001832   0.000441   0.013266  -0.000101  -0.000155   0.000103
              7          8          9         10         11         12
     1  C   -0.066118   0.008356  -0.009182  -0.002006  -0.000474  -0.000274
     2  H   -0.007118   0.000255   0.004340  -0.000208  -0.000036   0.000035
     3  H   -0.003597  -0.000442  -0.000224   0.001756   0.000027   0.000194
     4  H    0.007902  -0.000499   0.000230  -0.000288   0.000040   0.000032
     5  C    0.336873  -0.032984  -0.041466  -0.055516   0.007811  -0.008672
     6  H   -0.037617  -0.012967  -0.003411   0.007735  -0.000336  -0.000310
     7  C    4.944849   0.402897   0.408350   0.371779  -0.033491  -0.030287
     8  H    0.402897   0.597797  -0.029750  -0.039267  -0.004242  -0.008000
     9  H    0.408350  -0.029750   0.594744  -0.038348  -0.010191   0.007881
    10  C    0.371779  -0.039267  -0.038348   4.949685   0.391154   0.406831
    11  H   -0.033491  -0.004242  -0.010191   0.391154   0.611695  -0.033224
    12  H   -0.030287  -0.008000   0.007881   0.406831  -0.033224   0.554140
    13  C   -0.065448   0.008512  -0.004180   0.339874  -0.045380  -0.042724
    14  H   -0.003537  -0.000069  -0.000513  -0.016227   0.004219  -0.008052
    15  H   -0.001958  -0.000063   0.003934  -0.040212  -0.003498   0.007757
    16  C    0.005145  -0.000319  -0.000318  -0.044748  -0.003511  -0.005768
    17  H   -0.000330   0.000006   0.000000  -0.006150   0.006096  -0.001114
    18  C   -0.000268   0.000014  -0.000016   0.007300   0.000051  -0.000089
    19  H    0.000004   0.000000   0.000004  -0.000119   0.000013  -0.000018
    20  H    0.000012  -0.000001   0.000000  -0.000372   0.000019   0.000006
    21  H   -0.000027   0.000001  -0.000003   0.000131   0.000008   0.000006
    22  C   -0.053353  -0.000979   0.007685  -0.007468  -0.000408   0.001169
    23  H    0.007610  -0.000469  -0.000422   0.000468   0.000061   0.000719
    24  H   -0.005353   0.003036  -0.000214  -0.000370  -0.000014  -0.000706
    25  C    0.000123   0.000018   0.000013  -0.005508  -0.001906   0.003438
    26  H    0.000005  -0.000003   0.000002  -0.000043  -0.000086   0.000030
    27  H   -0.000012   0.000009   0.000003  -0.001619   0.000122   0.000113
    28  H    0.000027   0.000032  -0.000012   0.003637   0.000533  -0.001214
    29  O    0.004580  -0.000639  -0.000081  -0.004839   0.000596   0.016263
    30  O   -0.002158  -0.000064   0.000001  -0.000229  -0.000361  -0.000773
             13         14         15         16         17         18
     1  C   -0.002407  -0.004646   0.000792   0.000158  -0.000023  -0.000024
     2  H   -0.000051   0.000236   0.000023  -0.000035   0.000000   0.000003
     3  H    0.002694   0.000064  -0.002476   0.000474   0.000004   0.000206
     4  H    0.000102   0.000091   0.000176  -0.000008   0.000001  -0.000001
     5  C    0.000240   0.006037  -0.002449  -0.000154   0.000043   0.000018
     6  H   -0.000156  -0.000165  -0.000090   0.000029   0.000000  -0.000001
     7  C   -0.065448  -0.003537  -0.001958   0.005145  -0.000330  -0.000268
     8  H    0.008512  -0.000069  -0.000063  -0.000319   0.000006   0.000014
     9  H   -0.004180  -0.000513   0.003934  -0.000318   0.000000  -0.000016
    10  C    0.339874  -0.016227  -0.040212  -0.044748  -0.006150   0.007300
    11  H   -0.045380   0.004219  -0.003498  -0.003511   0.006096   0.000051
    12  H   -0.042724  -0.008052   0.007757  -0.005768  -0.001114  -0.000089
    13  C    5.364061   0.215487   0.387769   0.349671  -0.047467  -0.069440
    14  H    0.215487   0.449216  -0.017303  -0.020400   0.004212  -0.003164
    15  H    0.387769  -0.017303   0.576462  -0.036020  -0.005165  -0.007758
    16  C    0.349671  -0.020400  -0.036020   5.019482   0.398639   0.374353
    17  H   -0.047467   0.004212  -0.005165   0.398639   0.630405  -0.040986
    18  C   -0.069440  -0.003164  -0.007758   0.374353  -0.040986   4.875736
    19  H   -0.004301   0.002288  -0.000404  -0.036981   0.009228   0.405444
    20  H    0.008558   0.000183  -0.000027  -0.031501  -0.006480   0.401101
    21  H   -0.005869  -0.000709   0.004824  -0.032754  -0.006046   0.400073
    22  C   -0.002354   0.002945   0.000496  -0.000059  -0.000005  -0.000005
    23  H   -0.000500   0.000230  -0.000030   0.000003  -0.000001   0.000000
    24  H    0.000513  -0.001141  -0.000062   0.000006   0.000000   0.000001
    25  C   -0.069932  -0.007846   0.008444   0.356142  -0.048200  -0.063980
    26  H    0.008619   0.000137  -0.000387  -0.032702  -0.006124  -0.006719
    27  H   -0.002768   0.002709   0.000301  -0.038354   0.008928  -0.005600
    28  H   -0.007483  -0.000485  -0.000173  -0.029649  -0.005324   0.007553
    29  O    0.002572  -0.041333   0.000744  -0.000399  -0.000045   0.000023
    30  O   -0.073876   0.144812   0.000841   0.002553  -0.000224  -0.000576
             19         20         21         22         23         24
     1  C    0.000003   0.000000  -0.000023  -0.065471  -0.011118   0.008518
     2  H   -0.000003   0.000000   0.000001   0.007498   0.000111  -0.000325
     3  H    0.000044  -0.000004   0.000084  -0.003922   0.000929   0.000096
     4  H   -0.000001   0.000000   0.000001  -0.006557   0.005103  -0.000012
     5  C   -0.000018   0.000000   0.000002   0.313076  -0.058359  -0.031503
     6  H    0.000000   0.000000   0.000000  -0.033988   0.000716  -0.008126
     7  C    0.000004   0.000012  -0.000027  -0.053353   0.007610  -0.005353
     8  H    0.000000  -0.000001   0.000001  -0.000979  -0.000469   0.003036
[...]
 .00018395,-0.00014300,0.00000477,0.00001983,-0.00001098,-0.00011196,0.
 00004680,0.00003209,-0.00015761,0.00001958,-0.00005032,-0.00013415,-0.
 00029468,0.00000348,0.00024497,-0.00044467,-0.00015363,0.00006908,0.00
 009220,-0.00001220,-0.00001597,0.00010780,-0.00001664,0.00004447,-0.00
 001275,0.00001229,0.00000608,-0.00004890,0.00001027,-0.00001762,0.0000
 0781,0.00001711,0.00001942,0.00001007,-0.00000558,0.00000188,0.0000183
 1,-0.00000412,-0.02455372,-0.05926457,0.04977677,0.00638641,0.00377941
 ,-0.01365629,0.01756017,0.06504487,-0.00034147,0.00136507,0.00113596,0
 .00027530,0.00026477,-0.00034620,0.00002212,-0.00015403,0.00007699,0.0
 0015330,-0.00009801,0.00033916,0.00006095,0.00048251,-0.00372269,-0.00
 059241,0.00066823,0.00049010,-0.00006974,-0.00003052,0.00042552,0.0002
 0233,0.00032398,0.00025387,0.00000531,0.00009509,0.00008685,0.00004497
 ,0.00013634,-0.00004072,0.00001771,-0.00001239,0.00002581,0.00008034,-
 0.00006152,0.00001596,-0.00009619,-0.00014175,-0.00010115,0.00010039,0
 .00012713,0.00009317,-0.00003029,-0.00002053,0.00004520,-0.00001035,0.
 00006372,0.00004527,0.00003674,-0.00000642,0.00000373,-0.00000057,-0.0
 0000330,0.00001118,-0.00000283,0.00000363,-0.00000289,0.00001606,-0.00
 000182,-0.00000073,-0.00000751,-0.00000597,0.00000510,0.09117433,0.046
 42423,-0.25667425,0.00870450,0.00479507,-0.01831099,-0.10116662,-0.052
 66296,0.27285940,0.00001062,-0.00014679,-0.00016131,0.00005544,-0.0000
 2375,0.00001543,-0.00007182,0.00012287,0.00013405,-0.00012586,-0.00001
 808,0.00002979,0.00007279,0.00008489,-0.00003924,-0.00002637,-0.000022
 65,0.00002342,0.00033504,0.00026677,-0.00027654,-0.00003656,-0.0000812
 0,0.00009396,-0.00008948,-0.00009830,-0.00001504,-0.00074857,-0.000597
 72,-0.00054689,0.00023262,0.00015932,0.00019179,-0.00064149,0.00078918
 ,-0.00011439,-0.01060098,0.02574632,-0.02354948,0.00037214,0.00133410,
 0.00003507,-0.00622490,0.00140329,-0.00041908,-0.08056983,0.01708349,-
 0.01133215,0.00321551,-0.00961220,0.00757370,0.00330717,-0.01021256,0.
 00768238,0.00016388,0.00029676,-0.00073638,0.00014017,-0.00083469,0.00
 099960,-0.00120740,0.00026132,0.00331041,-0.00007158,0.00011664,-0.000
 04641,0.00000515,-0.00000657,-0.00000374,0.00001326,-0.00001696,0.0000
 1878,0.56423079,-0.00002619,-0.00007872,-0.00001542,0.00002231,-0.0000
 2754,0.00000825,0.00001030,0.00007256,-0.00000427,-0.00003038,-0.00000
 202,-0.00000908,0.00006020,0.00004979,0.00003483,-0.00000955,-0.000039
 57,-0.00000427,-0.00006245,0.00013787,0.00029470,-0.00009010,0.0000355
 5,0.00000173,-0.00004348,0.00001873,-0.00002095,-0.00055374,0.00000130
 ,-0.00011236,0.00007548,-0.00006053,-0.00006373,0.00032541,0.00022101,
 0.00000995,0.00691540,-0.00383625,0.00414060,-0.00163124,-0.00032563,-
 0.00089909,-0.00090154,0.00051971,-0.00124682,0.01505625,-0.13434194,0
 .04564592,0.00669940,-0.02471800,0.02000095,-0.00236272,0.00342777,0.0
 0164781,0.00018683,0.00093630,-0.00119441,0.00013156,0.00005473,-0.000
 58506,0.00077738,0.00090878,-0.00276139,-0.00021317,0.00009304,0.00002
 292,0.00004542,-0.00004859,-0.00000663,0.00005056,-0.00002060,-0.00001
 204,0.02106604,0.49842715,-0.00003211,-0.00003339,0.00002308,0.0000129
 6,-0.00004224,0.00001559,0.00001435,0.00003397,-0.00007541,0.00002314,
 0.00000928,-0.00002979,0.00000564,0.00012770,0.00004672,-0.00000020,-0
 .00007125,-0.00001157,0.00022188,0.00027263,-0.00052016,0.00014589,-0.
 00004669,-0.00001834,-0.00019548,0.00005910,-0.00008231,-0.00055253,-0
 .00138082,0.00034247,0.00016689,-0.00034724,0.00012427,0.00045001,0.00
 079337,0.00025316,-0.00867681,0.00243753,-0.00281089,0.00064020,0.0015
 7502,0.00006615,0.00097871,0.00051922,0.00121205,-0.00762091,0.0437866
 4,-0.11295258,0.00256477,-0.00721979,0.00584483,-0.00477693,0.02537620
 ,-0.02676598,-0.00076512,0.00062407,0.00152399,-0.00107646,0.00026196,
 0.00148347,0.00201101,-0.00033923,-0.00515235,-0.00055086,0.00025927,0
 .00010181,0.00010767,-0.00004463,0.00004815,0.00008575,-0.00001099,-0.
 00002073,-0.01862663,0.05238886,0.53046411,0.00001237,-0.00001862,-0.0
 0001522,0.00000127,0.00002016,0.00000227,-0.00000718,0.00000414,0.0000
 4105,-0.00002957,-0.00001451,-0.00000790,-0.00001170,0.00001633,0.0000
 3687,-0.00003941,0.00001287,-0.00001081,0.00007298,0.00008689,-0.00004
 747,-0.00004515,-0.00001559,0.00001831,-0.00006901,0.00002516,-0.00002
 474,0.00007427,-0.00034151,-0.00014126,0.00000800,0.00004069,0.0000146
 9,0.00017653,0.00011159,-0.00020236,0.00138795,0.00146745,-0.00059053,
 0.00012871,-0.00027945,0.00016746,-0.00047594,0.00017876,-0.00008470,-
 0.00733348,0.00021124,0.00011282,0.00042066,0.00052111,0.00006681,0.00
 032933,-0.00071177,0.00085142,-0.00007755,0.00003214,-0.00003621,0.000
 70731,0.00003534,-0.00051153,0.00041934,-0.00000094,0.00002241,0.00026
 797,-0.00005618,-0.00002202,-0.00005711,0.00000141,-0.00004345,-0.0000
 2438,0.00002011,0.00001626,-0.30328442,0.02870203,-0.01064438,0.329774
 60,-0.00000096,0.00005619,0.00004513,-0.00001767,0.00000864,-0.0000055
 1,0.00000949,-0.00003674,-0.00004307,0.00003901,0.00000409,-0.00000535
 ,-0.00003444,-0.00003673,0.00000436,0.00001497,0.00001473,-0.00000239,
 0.00000111,0.00001624,-0.00007254,0.00005169,0.00000165,-0.00002330,-0
 .00000930,0.00002533,0.00000436,-0.00015482,0.00015850,0.00037702,-0.0
 0006670,0.00003157,-0.00001783,0.00001303,-0.00009812,-0.00013112,-0.0
 0051825,-0.00380303,0.00341582,0.00025964,-0.00006609,0.00022228,0.001
 58074,-0.00003575,0.00028610,0.02618959,-0.00379439,0.00126532,-0.0000
 4873,0.00066047,-0.00091560,0.00040626,0.00082857,-0.00116178,-0.00019
 399,0.00000391,0.00007968,-0.00047124,0.00023516,0.00031319,-0.0001233
 1,-0.00009687,-0.00034985,0.00003336,-0.00006725,-0.00001956,-0.000017
 67,0.00002047,0.00000003,-0.00000522,0.00000541,-0.00000182,0.02740127
 ,-0.04985207,0.00048144,-0.03258673,0.05264451,0.00001583,-0.00001424,
 -0.00004493,0.00000759,0.00000348,-0.00000192,-0.00002357,0.00002252,0
 .00004054,-0.00002875,-0.00000387,0.00001734,0.00002963,-0.00004049,-0
 .00004271,0.00000605,0.00001619,0.00001538,-0.00013640,-0.00018813,0.0
 0025350,-0.00006134,0.00000998,0.00001225,0.00013663,-0.00005227,0.000
 02485,0.00061826,0.00026343,-0.00021840,-0.00007252,0.00013244,-0.0000
 1046,-0.00025426,-0.00041353,0.00021479,0.00043092,0.00342508,-0.00293
 379,0.00010845,-0.00015360,-0.00000979,-0.00133925,0.00035812,-0.00002
 814,-0.02110393,0.00191823,-0.00217888,0.00055086,-0.00050628,0.000611
 00,-0.00150378,-0.00025697,0.00084072,-0.00002331,-0.00003996,-0.00009
 202,0.00059460,0.00022947,-0.00033348,0.00022870,-0.00017941,0.0003012
 9,0.00007215,-0.00003626,0.00000361,-0.00001126,0.00000865,-0.00000537
 ,-0.00002646,0.00000113,0.00000751,-0.00894590,0.00022504,-0.04686968,
 0.01124312,-0.00398410,0.04942367,-0.00002751,-0.00002972,0.00000818,0
 .00000832,-0.00002340,0.00000657,0.00000515,0.00005319,-0.00005264,0.0
 0000903,0.00001041,-0.00000320,0.00001408,0.00003108,0.00000755,0.0000
 1255,-0.00002936,0.00000220,-0.00006622,-0.00006163,0.00003603,0.00000
 738,0.00000507,-0.00000744,0.00002803,-0.00002053,0.00000582,-0.000015
 19,0.00004512,-0.00002090,0.00007217,-0.00012734,-0.00008195,-0.000083
 70,0.00007835,0.00014073,0.00116745,0.00077607,0.00076311,-0.00021286,
 0.00062022,-0.00034897,0.00007972,-0.00023605,-0.00000990,0.00276181,0
 .00764850,0.00295615,0.00032942,0.00182616,-0.00111704,-0.00019750,-0.
 00036328,0.00014689,0.00018274,-0.00018499,0.00021735,-0.00004590,-0.0
 0014185,-0.00007007,-0.00002558,0.00017015,0.00014093,-0.00025055,0.00
 014054,0.00002661,0.00005453,-0.00002240,0.00003883,0.00003872,-0.0000
 2084,-0.00001231,-0.09217394,-0.09231819,-0.03459718,-0.01211336,-0.02
 762982,-0.01083342,0.09601277,0.00003388,0.00003051,-0.00001213,-0.000
 01191,0.00001890,-0.00000516,-0.00000432,-0.00005134,0.00003370,0.0000
 0403,-0.00000263,0.00000549,0.00000690,-0.00002432,-0.00002598,0.00000
 218,0.00001521,0.00000692,0.00003593,0.00006911,-0.00005614,0.00001980
 ,-0.00001484,-0.00000097,-0.00003143,0.00000961,-0.00000585,0.00025034
 ,-0.00015315,-0.00002535,-0.00007502,0.00015175,0.00011194,0.00016893,
 -0.00020542,-0.00014815,-0.00168919,0.00033184,-0.00102245,0.00072261,
 -0.00023366,0.00044181,0.00004297,0.00034770,0.00011483,-0.00926567,-0
 .02315079,-0.00720643,0.00159599,-0.00303591,0.00364504,0.00007733,0.0
 0084398,-0.00114256,-0.00018020,0.00046954,0.00085954,0.00002856,-0.00
 000537,0.00008044,0.00023819,0.00035877,0.00005527,0.00012240,-0.00010
 599,0.00001555,-0.00002674,0.00003181,-0.00000999,-0.00002921,0.000020
 30,0.00001017,-0.09046035,-0.23534568,-0.07251325,0.00169249,0.0047352
 4,0.00196111,0.09953431,0.25879854,-0.00002348,-0.00000223,0.00001919,
 0.00000505,-0.00000204,-0.00000381,0.00000642,0.00002782,-0.00002726,0
 .00000171,0.00000016,0.00000034,-0.00001611,-0.00000432,0.00002362,0.0
 0000651,0.00001515,0.00000041,0.00000857,0.00009344,0.00004058,-0.0000
 0801,-0.00000526,-0.00000653,-0.00001833,0.00000202,-0.00000722,-0.000
 00866,-0.00009957,0.00001884,0.00000351,0.00013267,-0.00002454,0.00006
 407,-0.00013598,-0.00013929,0.00078591,-0.00041215,0.00085109,-0.00013
 106,0.00049059,0.00007050,0.00017032,-0.00021335,-0.00003895,0.0087898
 3,0.01827989,0.00610894,-0.00095627,0.00383171,-0.00198816,0.00038633,
 0.00062968,0.00163052,-0.00019913,-0.00033264,-0.00011815,0.00000218,-
 0.00001206,-0.00008717,-0.00013394,-0.00032631,0.00013518,0.00009111,0
 .00003587,-0.00014060,-0.00003898,0.00001367,0.00000088,0.00006162,-0.
 00002065,-0.00000633,-0.03440225,-0.07343748,-0.07574847,0.00009348,0.
 00023918,-0.00116803,0.03907856,0.07697637,0.07991582,0.00000532,0.000
 01574,0.00000065,-0.00000274,-0.00000648,-0.00000166,-0.00000510,-0.00
 000263,-0.00001231,0.00001113,0.00000538,0.00000956,0.00001878,-0.0000
 1670,-0.00003482,0.00002399,0.00000163,0.00001235,-0.00010990,-0.00005
 746,-0.00000138,0.00002980,0.00000752,-0.00001196,0.00007060,-0.000026
 23,0.00001973,-0.00065619,0.00047182,-0.00008167,0.00003606,-0.0000761
 4,0.00003241,-0.00140973,0.00060365,-0.00019251,0.00018942,-0.00040861
 ,-0.00037420,0.00002627,-0.00008879,-0.00006702,0.00010141,0.00001784,
 0.00015210,0.00181678,-0.00266685,-0.00792058,0.00007002,-0.00034754,0
 .00046309,-0.00031550,0.00082913,-0.00051455,-0.00008572,0.00011066,0.
 00018146,0.00047323,0.00007339,-0.00026726,0.00056657,0.00017069,-0.00
 025391,-0.00010618,-0.00000051,0.00003497,0.00002936,0.00000062,0.0000
 1935,-0.00001180,-0.00000753,-0.00000513,-0.07591929,0.01628940,0.0809
 0407,-0.00995830,0.00633035,0.03036643,0.00464143,-0.00179277,-0.01340
 928,0.08044985,-0.00000765,-0.00000752,-0.00000070,-0.00000273,0.00000
 534,0.00000466,0.00000002,-0.00000591,0.00000817,-0.00000175,-0.000000
 66,-0.00000696,-0.00004286,0.00002182,0.00002364,-0.00002175,-0.000010
 10,-0.00001842,0.00001242,-0.00018242,-0.00006653,-0.00000418,0.000007
 20,0.00001186,0.00000755,-0.00000172,0.00001677,0.00060274,0.00032333,
 -0.00000408,-0.00003971,-0.00020814,-0.00010094,0.00036897,-0.00005189
 ,0.00008112,-0.00014342,0.00082519,-0.00054708,0.00004582,-0.00012321,
 -0.00000978,-0.00018820,-0.00002162,-0.00002648,-0.01009591,0.00533123
 ,0.02394266,-0.00049440,0.00106233,-0.00065533,0.00188622,-0.00394377,
 0.00249922,0.00018119,0.00013666,0.00028668,-0.00000178,-0.00014320,-0
 .00022821,-0.00042286,0.00028152,0.00165684,0.00001285,0.00002399,0.00
 002436,0.00000747,-0.00001143,0.00000053,-0.00003120,0.00001110,0.0000
 0792,0.01648812,-0.05660414,-0.04612812,0.00067871,-0.00174710,-0.0028
 8068,0.01092040,-0.00432586,-0.02525189,-0.01955038,0.05933806,0.00004
 751,0.00001573,-0.00002159,-0.00000251,0.00000189,-0.00000770,-0.00002
 043,0.00000739,0.00000966,-0.00000126,0.00000496,0.00003162,0.00004226
 ,-0.00009454,-0.00010210,0.00003798,0.00003211,0.00004081,-0.00026443,
 -0.00031728,0.00050802,-0.00006980,0.00003846,-0.00000677,0.00024279,-
 0.00009317,0.00004874,0.00076758,0.00054540,-0.00002291,-0.00008465,0.
 00025766,-0.00002433,-0.00046328,-0.00077256,0.00062914,0.00107040,-0.
 00017775,-0.00012977,0.00005260,-0.00029770,-0.00015296,-0.00011627,0.
 00001074,0.00007165,0.00624580,-0.00523052,-0.01743047,0.00008147,0.00
 033669,0.00095473,-0.00185732,0.00447270,-0.00128415,-0.00009644,-0.00
 002076,0.00042514,0.00002917,-0.00007051,0.00026237,0.00064112,-0.0001
 0828,-0.00124669,-0.00000549,-0.00008440,0.00003484,0.00000859,0.00002
 500,0.00001183,-0.00004769,-0.00000468,0.00000726,0.07956913,-0.044733
 37,-0.27040691,-0.00017177,0.00022088,0.00220494,0.00347738,-0.0016859
 8,-0.00912855,-0.08909558,0.04741194,0.29462137,-0.00019264,-0.0002466
 4,0.00101930,-0.00011039,0.00037483,-0.00012957,0.00034455,-0.00067730
 ,-0.00064710,0.00053096,-0.00009918,0.00040473,-0.01367103,0.01215354,
 0.00350885,0.00112513,0.00286227,-0.00127926,-0.00028926,-0.00046363,-
 0.00143991,0.00041876,0.00006885,0.00001951,0.00050978,0.00033778,0.00
 032435,-0.00299089,-0.00276300,0.00023425,0.00107884,-0.00066132,-0.00
 119310,0.00007078,-0.00075432,-0.00031272,0.00905741,0.01611126,0.0091
 1593,-0.02417119,-0.02778289,0.01294105,-0.00145949,-0.00235058,-0.001
 44988,-0.00049558,-0.00460200,-0.00165559,-0.00180932,0.00059522,-0.00
 010600,0.00022258,0.00033378,-0.00049871,0.00025028,-0.00002118,-0.000
 09882,-0.00030202,-0.00003567,0.00006000,0.00006909,-0.00008629,-0.000
 04045,-0.15166129,0.05043219,-0.05247466,-0.03842979,0.01487505,-0.005
 19137,-0.02321519,0.00730375,0.00287969,0.00028313,-0.00037944,0.00061
 768,-0.00017311,0.00022374,-0.00005770,-0.00036802,0.00036041,-0.00006
 042,0.00005107,0.00000169,-0.00006523,0.32749138,0.00007161,0.00018943
 ,-0.00057227,-0.00023794,-0.00005121,0.00052854,-0.00021792,-0.0001795
 6,0.00082173,0.00007543,-0.00008651,0.00022427,0.04061276,-0.01203288,
 0.00067118,0.00097842,-0.00862127,0.00212927,0.00012158,0.00434415,0.0
 0024744,0.00007402,-0.00018891,-0.00019034,0.00014850,0.00044192,0.000
 32084,-0.00157000,-0.00045045,-0.00104652,-0.00109863,-0.00132352,0.00
 059605,-0.00059343,-0.00311807,0.00007756,-0.00002061,-0.00259405,-0.0
 0048054,-0.01066964,-0.00282397,0.02139478,-0.00036831,-0.00008963,-0.
 00010453,0.00004552,-0.00029642,0.00016389,-0.00005634,0.00016967,0.00
 009579,-0.00004532,-0.00016743,-0.00014746,-0.00013462,0.00003128,0.00
 020978,-0.00002404,0.00008360,0.00006190,0.00004097,0.00008947,-0.0000
 2425,0.03741216,-0.08865370,0.03234594,-0.00260454,0.00861182,0.003120
 38,-0.00425586,0.00230487,-0.00084327,-0.00006470,-0.00009054,-0.00005
 180,-0.00002399,0.00010598,0.00000896,-0.00006983,0.00014963,-0.000077
 45,0.00006198,-0.00001726,0.00011914,-0.05538746,0.14364992,-0.0000037
 5,-0.00069518,-0.00103641,0.00054242,-0.00019660,0.00027109,-0.0001131
 9,0.00067894,-0.00022852,-0.00020042,0.00006106,0.00022362,-0.00759092
 ,0.00320708,0.00083200,0.00012754,0.00043631,0.00042817,0.00154892,0.0
 0033017,0.00136258,-0.00048209,0.00014618,0.00000710,0.00006017,-0.000
 34434,-0.00012421,0.00085961,0.00343394,-0.00148309,-0.00152490,-0.001
 05405,0.00256192,-0.00068608,-0.00314714,0.00169790,-0.01146871,-0.027
 13219,-0.01503371,0.02699753,0.04611212,0.00507281,0.00172743,0.003236
 67,0.00225810,0.00080778,0.00657369,0.00265535,0.00252516,-0.00077950,
 0.00023526,-0.00032510,-0.00013835,0.00088702,-0.00012187,-0.00006783,
 -0.00028713,0.00031458,-0.00004608,-0.00010354,-0.00014093,-0.00006819
 ,0.00008627,-0.02676657,0.02420889,-0.08531953,-0.02474794,0.01237186,
 0.00053490,0.03322721,-0.01153004,-0.00107409,-0.00018486,0.00081202,-
 0.00093578,0.00010231,-0.00037877,0.00020624,0.00018968,-0.00060920,-0
 .00002873,0.00004611,0.00005093,0.00025692,-0.04675871,-0.07734672,0.2
 6644964,0.00042761,0.00217808,-0.00182724,-0.00089600,0.00035594,0.000
 15565,-0.00188143,0.00150912,0.00089130,-0.00036279,0.00006729,-0.0001
 0091,0.00557952,0.00063903,-0.00366687,0.00039499,-0.00185796,0.000259
 69,0.00071363,-0.00005092,0.00061882,-0.00025712,-0.00007601,0.0000937
 4,-0.00002847,-0.00025350,-0.00009254,0.00261404,0.00685463,0.00130399
 ,-0.00153073,-0.00063461,0.00174079,-0.00015361,-0.00072004,0.00095470
 ,-0.02918955,-0.06973872,-0.02985462,0.01134415,0.04470533,0.00701237,
 0.00208022,0.00375703,0.00325857,0.00303347,0.00686208,0.00252789,0.00
 201298,-0.00085426,0.00004939,-0.00015035,0.00010142,0.00117889,-0.000
 38472,-0.00005618,-0.00014756,0.00029705,0.00002580,-0.00010038,-0.000
 11943,-0.00015834,0.00008243,-0.03202313,-0.00474920,0.05044620,0.0062
 1138,-0.00196360,0.00068858,-0.00783009,0.00382845,-0.00147368,-0.0006
 4520,0.00220823,-0.00083503,-0.00008161,-0.00067540,0.00001262,0.00015
 503,-0.00137044,-0.00014924,-0.00003064,-0.00016542,0.00004838,-0.0821
 6451,-0.00219977,0.05203960,0.12286532,0.00009885,-0.00242337,0.000835
 28,0.00105242,-0.00055137,-0.00025412,0.00220247,-0.00043207,-0.000360
 63,-0.00015934,0.00014587,-0.00004808,0.00083615,0.00157603,-0.0016537
 1,-0.00023373,-0.00056890,0.00009694,0.00120157,-0.00010093,0.00046197
 ,-0.00027428,0.00003937,0.00001431,-0.00023984,-0.00011020,0.00001158,
 0.00105571,0.00560989,0.00270181,-0.00101145,-0.00005107,0.00119158,-0
 .00002324,-0.00057006,-0.00021306,-0.04709322,-0.09622984,-0.03951565,
 0.03157705,0.02616112,-0.01216535,0.00265371,0.00453503,0.00307671,0.0
 0342585,0.00548971,0.00256910,0.00089600,-0.00081213,-0.00042851,-0.00
 056155,0.00009667,0.00079590,-0.00031416,0.00012316,0.00023927,0.00015
 489,0.00007924,0.00004285,-0.00000265,0.00001633,-0.00008628,-0.000936
 81,0.00411176,-0.01183995,0.00074842,-0.00064139,0.00084910,0.00299341
 ,0.00026646,-0.00071150,-0.00042386,0.00048751,-0.00077684,0.00019066,
 0.00007748,0.00016595,-0.00058033,0.00027253,-0.00043483,0.00005882,0.
 00003816,0.00019080,-0.00972346,-0.03938633,0.02187433,0.01243194,0.09
 275134,0.00057003,0.00162451,-0.00000688,-0.00096202,0.00054880,0.0002
 8342,-0.00151799,-0.00055017,0.00050461,0.00038597,-0.00018444,0.00002
 204,-0.00232623,-0.00118227,0.00160459,-0.00054457,0.00146344,0.000107
 87,-0.00098160,-0.00033657,-0.00125042,0.00046975,0.00009276,0.0001373
 6,0.00007687,0.00030987,0.00021779,-0.00418833,-0.00549861,0.00049499,
 0.00187194,0.00090250,-0.00186239,0.00057755,0.00114693,-0.00138349,0.
 00265781,0.00639516,0.01069679,-0.01073545,-0.04122979,-0.04257566,-0.
 00112721,-0.00317660,-0.00132398,-0.00033340,-0.00592624,-0.00266711,-
 0.00243790,0.00077220,-0.00029566,0.00021377,-0.00011473,-0.00108169,0
 .00001664,0.00033180,0.00044595,-0.00027795,0.00014248,0.00022065,0.00
 013553,0.00000687,-0.00003107,0.02424220,-0.00640785,-0.01258760,-0.00
 314135,0.00108513,0.00300789,0.00073577,-0.00141383,0.00437273,-0.0002
 7722,-0.00012720,0.00085109,-0.00023494,0.00015779,-0.00024004,-0.0000
 8754,0.00015142,-0.00015414,0.00000154,-0.00010207,-0.00015414,0.08233
 387,0.01774770,-0.18037214,-0.08511553,0.03337102,0.22301863\\0.000001
 13,-0.00000427,-0.00000558,0.00000061,-0.00000375,-0.00000947,0.000003
 69,-0.00000061,-0.00000261,0.00000504,-0.00000680,-0.00000540,0.000002
 16,0.00000133,-0.00000600,0.00000066,0.00000565,-0.00000528,0.00000018
 ,0.00000440,-0.00000579,-0.00000237,0.00000835,-0.00000682,0.00000147,
 0.00000234,-0.00000898,-0.00000099,0.00000141,-0.00000388,-0.00000037,
 0.00000433,-0.00000409,-0.00000359,0.00000690,0.00000166,0.00000058,0.
 00000001,0.00000373,0.00000407,-0.00000218,0.00000108,0.00000270,-0.00
 000210,-0.00000289,-0.00000088,0.00000114,0.00000659,0.00000207,-0.000
 00009,-0.00000373,0.00000198,-0.00001168,-0.00000246,0.00000168,-0.000
 00710,0.00000834,0.00000242,-0.00000615,0.00000727,0.00000256,-0.00000
 896,0.00000132,-0.00000399,0.00000249,0.00000114,-0.00000067,0.0000003
 4,0.00000140,-0.00000305,0.00000646,0.00000047,-0.00000365,0.00000240,
 0.00000788,-0.00000170,0.00000083,0.00000883,-0.00000335,0.00000171,0.
 00000826,-0.00000448,0.00000463,0.00000665,-0.00000273,0.00000121,0.00
 000371,-0.00000116,-0.00000222,0.00000466\\\@
 Job cpu time:  0 days  9 hours 55 minutes  5.6 seconds.
 File lengths (MBytes):  RWF=  77835 Int=      0 D2E=      0 Chk=     26 Scr=      1
 Normal termination of Gaussian 09 at Mon Feb 17 16:01:14 2014.
