 Entering Gaussian System, Link 0=g09
 Initial command:
 /usr/caen/gaussian-09revc/g09/l1.exe /scratch/avioli_flux/hetanjin/scratch/Gau-10512.inp -scrdir=/scratch/avioli_flux/hetanjin/scratch/
 Entering Link 1 = /usr/caen/gaussian-09revc/g09/l1.exe PID=     10513.
  
 Copyright (c) 1988,1990,1992,1993,1995,1998,2003,2009,2011,
            Gaussian, Inc.  All Rights Reserved.
  
 This is part of the Gaussian(R) 09 program.  It is based on
 the Gaussian(R) 03 system (copyright 2003, Gaussian, Inc.),
 the Gaussian(R) 98 system (copyright 1998, Gaussian, Inc.),
 the Gaussian(R) 94 system (copyright 1995, Gaussian, Inc.),
 the Gaussian 92(TM) system (copyright 1992, Gaussian, Inc.),
 the Gaussian 90(TM) system (copyright 1990, Gaussian, Inc.),
 the Gaussian 88(TM) system (copyright 1988, Gaussian, Inc.),
 the Gaussian 86(TM) system (copyright 1986, Carnegie Mellon
 University), and the Gaussian 82(TM) system (copyright 1983,
 Carnegie Mellon University). Gaussian is a federally registered
 trademark of Gaussian, Inc.
  
 This software contains proprietary and confidential information,
 including trade secrets, belonging to Gaussian, Inc.
  
 This software is provided under written license and may be
 used, copied, transmitted, or stored only in accord with that
 written license.
  
 The following legend is applicable only to US Government
 contracts under FAR:
  
                    RESTRICTED RIGHTS LEGEND
  
 Use, reproduction and disclosure by the US Government is
 subject to restrictions as set forth in subparagraphs (a)
 and (c) of the Commercial Computer Software - Restricted
 Rights clause in FAR 52.227-19.
  
 Gaussian, Inc.
 340 Quinnipiac St., Bldg. 40, Wallingford CT 06492
  
  
 ---------------------------------------------------------------
 Warning -- This program may not be used in any manner that
 competes with the business of Gaussian, Inc. or will provide
 assistance to any competitor of Gaussian, Inc.  The licensee
 of this program is prohibited from giving any competitor of
 Gaussian, Inc. access to this program.  By using this program,
 the user acknowledges that Gaussian, Inc. is engaged in the
 business of creating and licensing software in the field of
 computational chemistry and represents and warrants to the
 licensee that it is not a competitor of Gaussian, Inc. and that
 it will not use this program in any manner prohibited above.
 ---------------------------------------------------------------
  

 Cite this work as:
 Gaussian 09, Revision C.01,
 M. J. Frisch, G. W. Trucks, H. B. Schlegel, G. E. Scuseria, 
 M. A. Robb, J. R. Cheeseman, G. Scalmani, V. Barone, B. Mennucci, 
 G. A. Petersson, H. Nakatsuji, M. Caricato, X. Li, H. P. Hratchian, 
 A. F. Izmaylov, J. Bloino, G. Zheng, J. L. Sonnenberg, M. Hada, 
 M. Ehara, K. Toyota, R. Fukuda, J. Hasegawa, M. Ishida, T. Nakajima, 
 Y. Honda, O. Kitao, H. Nakai, T. Vreven, J. A. Montgomery, Jr., 
 J. E. Peralta, F. Ogliaro, M. Bearpark, J. J. Heyd, E. Brothers, 
 K. N. Kudin, V. N. Staroverov, T. Keith, R. Kobayashi, J. Normand, 
 K. Raghavachari, A. Rendell, J. C. Burant, S. S. Iyengar, J. Tomasi, 
 M. Cossi, N. Rega, J. M. Millam, M. Klene, J. E. Knox, J. B. Cross, 
 V. Bakken, C. Adamo, J. Jaramillo, R. Gomperts, R. E. Stratmann, 
 O. Yazyev, A. J. Austin, R. Cammi, C. Pomelli, J. W. Ochterski, 
 R. L. Martin, K. Morokuma, V. G. Zakrzewski, G. A. Voth, 
 P. Salvador, J. J. Dannenberg, S. Dapprich, A. D. Daniels, 
 O. Farkas, J. B. Foresman, J. V. Ortiz, J. Cioslowski, 
 and D. J. Fox, Gaussian, Inc., Wallingford CT, 2010.
 
 ******************************************
 Gaussian 09:  EM64L-G09RevC.01 23-Sep-2011
                 8-Feb-2014 
 ******************************************
 %mem=30GB
 %nprocshared=8
 Will use up to    8 processors via shared memory.
 %chk=C9H18OOH_1_26_e.chk
 --------------------------------------------------
 #p UB3LYP/6-311++G(d,p) guess=mix stable=(opt,xqc)
 --------------------------------------------------
 1/38=1/1;
 2/12=2,17=6,18=5,40=1/2;
 3/5=4,6=6,7=1111,11=2,16=1,25=1,30=1,74=-5,116=2/1,2,3;
 4/13=-1/1;
 5/5=2,38=5/2;
 6/7=2,8=2,9=2,10=2,28=1/1;
 8/6=1,10=90,11=11/1;
 9/8=-3,42=1,46=1/14;
 5/5=2,8=3,13=1,17=40,38=5/2,8(-2);
 6/7=2,8=2,9=2,10=2,28=1/1;
 99/5=1,9=1/99;
 Leave Link    1 at Sat Feb  8 02:36:03 2014, MaxMem= 4026531840 cpu:       0.6
 (Enter /usr/caen/gaussian-09revc/g09/l101.exe)
 --------------------------------------------
 C9H18OOH_1_26_e using cbs-qb3 to cal. energy
 --------------------------------------------
 Charge =  0 Multiplicity = 2
 Symbolic Z-Matrix:
 C                    -3.33017  -1.36176  -0.11299 
 H                    -3.28266  -2.43979  -0.28907 
 H                    -3.52374  -0.86869  -1.06867 
 H                    -4.18619  -1.16554   0.53983 
 C                    -2.02384  -0.85448   0.51051 
 H                    -1.87489  -1.37787   1.46683 
 C                    -0.80254  -1.17927  -0.37909 
 H                    -0.88718  -2.24183  -0.67147 
 H                    -0.86659  -0.61189  -1.31298 
 C                     0.5219   -0.94739   0.27043 
 H                     0.6455   -1.26441   1.30511 
 C                     1.74801  -0.65535  -0.52888 
 H                     1.52232   0.11994  -1.27665 
 H                     2.02084  -1.54741  -1.12323 
 C                     2.98116  -0.22856   0.29173 
 H                     3.14453  -0.99454   1.06234 
 C                     4.23435  -0.1762   -0.59175 
 H                     4.11626   0.56247  -1.39242 
 H                     5.11804   0.10404  -0.01085 
 H                     4.43426  -1.1447   -1.05986 
 C                    -2.12782   0.62848   0.89137 
 H                    -2.9004    0.75874   1.65773 
 H                    -1.17827   1.00922   1.28102 
 C                     2.75537   1.11464   0.99907 
 H                     3.6207    1.38951   1.60975 
 H                     2.59601   1.91438   0.26704 
 H                     1.87882   1.08373   1.65134 
 O                    -2.59445   1.4943   -0.14688 
 O                    -1.49013   1.75041  -1.06716 
 H                    -1.45928   2.71631  -1.02593 
 
 NAtoms=     30 NQM=        0 NQMF=       0 NMMI=     30 NMMIF=      0
                NMic=       0 NMicF=      0.
                    Isotopes and Nuclear Properties:
 (Nuclear quadrupole moments (NQMom) in fm**2, nuclear magnetic moments (NMagM)
  in nuclear magnetons)

  Atom         1           2           3           4           5           6           7           8           9          10
 IAtWgt=          12           1           1           1          12           1          12           1           1          12
 AtmWgt=  12.0000000   1.0078250   1.0078250   1.0078250  12.0000000   1.0078250  12.0000000   1.0078250   1.0078250  12.0000000
 NucSpn=           0           1           1           1           0           1           0           1           1           0
 AtZEff=   0.0000000   0.0000000   0.0000000   0.0000000   0.0000000   0.0000000   0.0000000   0.0000000   0.0000000   0.0000000
 NQMom=    0.0000000   0.0000000   0.0000000   0.0000000   0.0000000   0.0000000   0.0000000   0.0000000   0.0000000   0.0000000
 NMagM=    0.0000000   2.7928460   2.7928460   2.7928460   0.0000000   2.7928460   0.0000000   2.7928460   2.7928460   0.0000000

  Atom        11          12          13          14          15          16          17          18          19          20
 IAtWgt=           1          12           1           1          12           1          12           1           1           1
 AtmWgt=   1.0078250  12.0000000   1.0078250   1.0078250  12.0000000   1.0078250  12.0000000   1.0078250   1.0078250   1.0078250
 NucSpn=           1           0           1           1           0           1           0           1           1           1
 AtZEff=   0.0000000   0.0000000   0.0000000   0.0000000   0.0000000   0.0000000   0.0000000   0.0000000   0.0000000   0.0000000
 NQMom=    0.0000000   0.0000000   0.0000000   0.0000000   0.0000000   0.0000000   0.0000000   0.0000000   0.0000000   0.0000000
 NMagM=    2.7928460   0.0000000   2.7928460   2.7928460   0.0000000   2.7928460   0.0000000   2.7928460   2.7928460   2.7928460

  Atom        21          22          23          24          25          26          27          28          29          30
 IAtWgt=          12           1           1          12           1           1           1          16          16           1
 AtmWgt=  12.0000000   1.0078250   1.0078250  12.0000000   1.0078250   1.0078250   1.0078250  15.9949146  15.9949146   1.0078250
 NucSpn=           0           1           1           0           1           1           1           0           0           1
 AtZEff=   0.0000000   0.0000000   0.0000000   0.0000000   0.0000000   0.0000000   0.0000000   0.0000000   0.0000000   0.0000000
 NQMom=    0.0000000   0.0000000   0.0000000   0.0000000   0.0000000   0.0000000   0.0000000   0.0000000   0.0000000   0.0000000
 NMagM=    0.0000000   2.7928460   2.7928460   0.0000000   2.7928460   2.7928460   2.7928460   0.0000000   0.0000000   2.7928460
 Leave Link  101 at Sat Feb  8 02:36:03 2014, MaxMem= 4026531840 cpu:       0.6
 (Enter /usr/caen/gaussian-09revc/g09/l202.exe)
                          Input orientation:                          
 ---------------------------------------------------------------------
 Center     Atomic      Atomic             Coordinates (Angstroms)
 Number     Number       Type             X           Y           Z
 ---------------------------------------------------------------------
      1          6           0       -3.330173   -1.361764   -0.112989
      2          1           0       -3.282656   -2.439790   -0.289070
      3          1           0       -3.523744   -0.868688   -1.068673
      4          1           0       -4.186189   -1.165537    0.539834
      5          6           0       -2.023839   -0.854484    0.510507
      6          1           0       -1.874893   -1.377867    1.466830
      7          6           0       -0.802541   -1.179268   -0.379091
      8          1           0       -0.887175   -2.241828   -0.671465
      9          1           0       -0.866592   -0.611886   -1.312976
     10          6           0        0.521900   -0.947387    0.270434
     11          1           0        0.645503   -1.264414    1.305110
     12          6           0        1.748006   -0.655351   -0.528877
     13          1           0        1.522322    0.119935   -1.276646
     14          1           0        2.020844   -1.547408   -1.123228
     15          6           0        2.981163   -0.228555    0.291733
     16          1           0        3.144527   -0.994539    1.062343
     17          6           0        4.234354   -0.176200   -0.591753
     18          1           0        4.116257    0.562466   -1.392415
     19          1           0        5.118038    0.104035   -0.010846
     20          1           0        4.434265   -1.144698   -1.059858
     21          6           0       -2.127816    0.628481    0.891371
     22          1           0       -2.900399    0.758735    1.657732
     23          1           0       -1.178269    1.009219    1.281019
     24          6           0        2.755370    1.114642    0.999071
     25          1           0        3.620695    1.389509    1.609751
     26          1           0        2.596011    1.914381    0.267035
     27          1           0        1.878817    1.083732    1.651343
     28          8           0       -2.594445    1.494299   -0.146878
     29          8           0       -1.490132    1.750408   -1.067161
     30          1           0       -1.459284    2.716306   -1.025931
 ---------------------------------------------------------------------
                    Distance matrix (angstroms):
                    1          2          3          4          5
     1  C    0.000000
     2  H    1.093345   0.000000
     3  H    1.092669   1.770386   0.000000
     4  H    1.094279   1.768382   1.764723   0.000000
     5  C    1.533815   2.176497   2.178010   2.184805   0.000000
     6  H    2.148005   2.488506   3.067042   2.499299   1.100304
     7  C    2.548144   2.783521   2.824346   3.506235   1.545457
     8  H    2.656059   2.433874   2.999130   3.675478   2.147973
     9  H    2.841042   3.197965   2.680688   3.841765   2.173284
    10  C    3.893223   4.124919   4.262234   4.720833   2.558721
    11  H    4.222142   4.399244   4.813945   4.892921   2.815106
    12  C    5.143917   5.343154   5.303606   6.051207   3.917498
    13  H    5.205405   5.533111   5.146203   6.126919   4.088847
    14  H    5.448709   5.442360   5.586241   6.437302   4.416865
    15  C    6.425023   6.668007   6.676398   7.232595   5.048732
    16  H    6.590751   6.724861   7.001636   7.351303   5.199629
    17  C    7.671822   7.856265   7.803530   8.553644   6.390620
    18  H    7.796724   8.060696   7.779629   8.697712   6.582525
    19  H    8.575038   8.781806   8.760456   9.406578   7.224747
    20  H    7.824971   7.862712   7.962799   8.767649   6.652622
    21  C    2.532879   3.484449   2.834061   2.752994   1.534618
    22  H    2.795832   3.763870   3.235792   2.570170   2.164938
    23  H    3.492207   4.334661   3.814294   3.785037   2.186794
    24  C    6.663565   7.123977   6.901915   7.320885   5.192012
    25  H    7.671499   8.119440   7.957161   8.283744   6.172893
    26  H    6.782124   7.336674   6.854268   7.453761   5.391559
    27  H    6.018878   6.543792   6.355950   6.563456   4.504321
    28  O    2.949498   3.996362   2.701298   3.174894   2.504901
    29  O    3.739226   4.623454   3.315908   4.284144   3.091819
    30  H    4.578684   5.518421   4.137149   4.995632   3.928092
                    6          7          8          9         10
     6  H    0.000000
     7  C    2.144016   0.000000
     8  H    2.508849   1.105296   0.000000
     9  H    3.054623   1.094608   1.751762   0.000000
    10  C    2.713170   1.493250   2.132661   2.132524   0.000000
    11  H    2.528126   2.222749   2.685384   3.092992   1.089192
    12  C    4.198842   2.608106   3.079191   2.729986   1.492488
    13  H    4.616399   2.810431   3.427805   2.498758   2.129196
    14  H    4.681230   2.942919   3.023720   3.041133   2.132874
    15  C    5.126700   3.958570   4.465989   4.186556   2.562254
    16  H    5.050260   4.206091   4.562504   4.677354   2.739985
    17  C    6.557794   5.140203   5.522973   5.170071   3.888497
    18  H    6.916217   5.315547   5.780845   5.119980   4.238411
    19  H    7.299359   6.069244   6.480901   6.166351   4.723250
    20  H    6.800294   5.280982   5.447226   5.333577   4.137053
    21  C    2.102512   2.576506   3.495757   2.826366   3.144824
    22  H    2.377640   3.507921   4.299024   3.852282   4.067871
    23  H    2.493590   2.772474   3.803451   3.074725   2.782115
    24  C    5.279274   4.451975   5.227305   4.630882   3.125902
    25  H    6.154696   5.488089   6.221852   5.716962   4.105774
    26  H    5.680439   4.640937   5.503403   4.568159   3.534355
    27  H    4.492644   4.053827   4.909735   4.381732   2.805990
    28  O    3.372113   3.226888   4.141088   2.963322   3.980903
    29  O    4.044163   3.086944   4.056856   2.455537   3.621537
    30  H    4.811324   4.003150   5.003603   3.392719   4.362144
                   11         12         13         14         15
    11  H    0.000000
    12  C    2.224855   0.000000
    13  H    3.057891   1.100527   0.000000
    14  H    2.805080   1.106101   1.747024   0.000000
    15  C    2.748680   1.541503   2.170132   2.159560   0.000000
    16  H    2.525250   2.144132   3.056873   2.518938   1.098753
    17  C    4.202636   2.532877   2.812809   2.657499   1.534202
    18  H    4.760280   2.799534   2.633958   2.985764   2.179566
    19  H    4.858803   3.493156   3.812044   3.682020   2.183668
    20  H    4.467899   2.781616   3.182091   2.447609   2.185777
    21  C    3.383124   4.322884   4.275795   5.099459   5.214954
    22  H    4.097669   5.328092   5.345942   6.104971   6.118289
    23  H    2.914812   3.822251   3.824352   4.748797   4.451028
    24  C    3.194543   2.546033   2.772857   3.482842   1.534760
    25  H    3.998485   3.501735   3.787648   4.319048   2.182729
    26  H    3.871281   2.820658   2.599191   3.774603   2.177413
    27  H    2.674833   2.791931   3.103081   3.826397   2.187648
    28  O    4.496224   4.860432   4.484754   5.613032   5.852180
    29  O    4.390644   4.069762   3.431793   4.817228   5.074975
    30  H    5.070504   4.679940   3.961562   5.504545   5.488717
                   16         17         18         19         20
    16  H    0.000000
    17  C    2.143230   0.000000
    18  H    3.065022   1.095734   0.000000
    19  H    2.500669   1.094021   1.767048   0.000000
    20  H    2.487913   1.094109   1.768087   1.768419   0.000000
    21  C    5.519151   6.582125   6.648946   7.320617   7.071942
    22  H    6.322151   7.539164   7.653455   8.216332   8.050196
    23  H    4.769636   5.848844   5.948012   6.490898   6.451326
    24  C    2.145715   2.526735   2.806442   2.761061   3.487477
    25  H    2.492002   2.770314   3.153186   2.553588   3.769737
    26  H    3.065159   2.791454   2.625375   3.116920   3.807596
    27  H    2.503628   3.488189   3.813439   3.770309   4.341293
    28  O    6.371211   7.044216   6.888628   7.837967   7.563108
    29  O    5.792200   6.058677   5.740087   6.891608   6.593950
    30  H    6.271071   6.400985   5.988322   7.149512   7.045738
                   21         22         23         24         25
    21  C    0.000000
    22  H    1.095974   0.000000
    23  H    1.094727   1.780558   0.000000
    24  C    4.908509   5.705105   3.945139   0.000000
    25  H    5.842997   6.551706   4.825219   1.094198   0.000000
    26  H    4.935370   5.786197   4.011567   1.095835   1.768715
    27  H    4.103403   4.790258   3.080336   1.093050   1.769002
    28  O    1.430155   1.972633   2.068755   5.484328   6.459465
    29  O    2.345466   3.224486   2.482049   4.764221   5.780714
    30  H    2.912387   3.620904   2.883597   4.942597   5.874810
                   26         27         28         29         30
    26  H    0.000000
    27  H    1.766537   0.000000
    28  O    5.223852   4.838619   0.000000
    29  O    4.301573   4.380016   1.460144   0.000000
    30  H    4.331312   4.579958   1.885372   0.967270   0.000000
 Stoichiometry    C9H19O2(2)
 Framework group  C1[X(C9H19O2)]
 Deg. of freedom    84
 Full point group                 C1      NOp   1
 Largest Abelian subgroup         C1      NOp   1
 Largest concise Abelian subgroup C1      NOp   1
                         Standard orientation:                         
 ---------------------------------------------------------------------
 Center     Atomic      Atomic             Coordinates (Angstroms)
 Number     Number       Type             X           Y           Z
 ---------------------------------------------------------------------
      1          6           0       -3.330173   -1.361764   -0.112989
      2          1           0       -3.282656   -2.439790   -0.289070
      3          1           0       -3.523744   -0.868688   -1.068673
      4          1           0       -4.186189   -1.165537    0.539834
      5          6           0       -2.023839   -0.854484    0.510507
      6          1           0       -1.874893   -1.377867    1.466830
      7          6           0       -0.802541   -1.179268   -0.379091
      8          1           0       -0.887175   -2.241828   -0.671465
      9          1           0       -0.866592   -0.611886   -1.312976
     10          6           0        0.521900   -0.947387    0.270434
     11          1           0        0.645503   -1.264414    1.305110
     12          6           0        1.748006   -0.655351   -0.528877
     13          1           0        1.522322    0.119935   -1.276646
     14          1           0        2.020844   -1.547408   -1.123228
     15          6           0        2.981163   -0.228555    0.291733
     16          1           0        3.144527   -0.994539    1.062343
     17          6           0        4.234354   -0.176200   -0.591753
     18          1           0        4.116257    0.562466   -1.392415
     19          1           0        5.118038    0.104035   -0.010846
     20          1           0        4.434265   -1.144698   -1.059858
     21          6           0       -2.127816    0.628481    0.891371
     22          1           0       -2.900399    0.758735    1.657732
     23          1           0       -1.178269    1.009219    1.281019
     24          6           0        2.755370    1.114642    0.999071
     25          1           0        3.620695    1.389509    1.609751
     26          1           0        2.596011    1.914381    0.267035
     27          1           0        1.878817    1.083732    1.651343
     28          8           0       -2.594445    1.494299   -0.146878
     29          8           0       -1.490132    1.750408   -1.067161
     30          1           0       -1.459284    2.716306   -1.025931
 ---------------------------------------------------------------------
 Rotational constants (GHZ):      1.7623491      0.4670780      0.4180833
 Leave Link  202 at Sat Feb  8 02:36:04 2014, MaxMem= 4026531840 cpu:       0.6
 (Enter /usr/caen/gaussian-09revc/g09/l301.exe)
 Standard basis: 6-311++G(d,p) (5D, 7F)
 Ernie: Thresh=  0.10000D-02 Tol=  0.10000D-05 Strict=F.
 There are   375 symmetry adapted basis functions of A   symmetry.
 Integral buffers will be    131072 words long.
 Raffenetti 2 integral format.
 Two-electron integral symmetry is turned on.
   375 basis functions,   567 primitive gaussians,   386 cartesian basis functions
    45 alpha electrons       44 beta electrons
       nuclear repulsion energy       653.8092673716 Hartrees.
 IExCor=  402 DFT=T Ex+Corr=B3LYP ExCW=0 ScaHFX=  0.200000
 ScaDFX=  0.800000  0.720000  1.000000  0.810000 ScalE2=  1.000000  1.000000
 IRadAn=      0 IRanWt=     -1 IRanGd=            0 ICorTp=0
 NAtoms=   30 NActive=   30 NUniq=   30 SFac= 1.00D+00 NAtFMM=   60 NAOKFM=F Big=F
 Leave Link  301 at Sat Feb  8 02:36:04 2014, MaxMem= 4026531840 cpu:       0.9
 (Enter /usr/caen/gaussian-09revc/g09/l302.exe)
 NPDir=0 NMtPBC=     1 NCelOv=     1 NCel=       1 NClECP=     1 NCelD=      1
         NCelK=      1 NCelE2=     1 NClLst=     1 CellRange=     0.0.
 One-electron integrals computed using PRISM.
 NBasis=   375 RedAO= T  NBF=   375
 NBsUse=   375 1.00D-06 NBFU=   375
 Precomputing XC quadrature grid using
 IXCGrd= 2 IRadAn=           0 IRanWt=          -1 IRanGd=           0 AccXCQ= 0.00D+00.
 NRdTot=    1960 NPtTot=      249830 NUsed=      263953 NTot=      263985
 NSgBfM=   385   385   386   386   386 NAtAll=    30    30.
 Leave Link  302 at Sat Feb  8 02:36:06 2014, MaxMem= 4026531840 cpu:       9.2
 (Enter /usr/caen/gaussian-09revc/g09/l303.exe)
 DipDrv:  MaxL=1.
 Leave Link  303 at Sat Feb  8 02:36:07 2014, MaxMem= 4026531840 cpu:       2.4
 (Enter /usr/caen/gaussian-09revc/g09/l401.exe)
 Harris functional with IExCor=  402 diagonalized for initial guess.
 ExpMin= 3.60D-02 ExpMax= 8.59D+03 ExpMxC= 1.30D+03 IAcc=3 IRadAn=         5 AccDes= 0.00D+00
 HarFok:  IExCor=  402 AccDes= 0.00D+00 IRadAn=         5 IDoV= 1
 ScaDFX=  1.000000  1.000000  1.000000  1.000000
 FoFCou: FMM=F IPFlag=           0 FMFlag=      100000 FMFlg1=           0
         NFxFlg=           0 DoJE=T BraDBF=F KetDBF=T FulRan=T
         Omega=  0.000000  0.000000  1.000000  0.000000  0.000000 ICntrl=     500 IOpCl=  0
         NMat0=    1 NMatS0=    1 NMatT0=    0 NMatD0=    1 NMtDS0=    0 NMtDT0=    0
         I1Cent=           4 NGrid=           0.
 Petite list used in FoFCou.
 Harris En= -504.907269212284    
 Mixing orbitals, IMix= 1 IMixAn=  0 NRI=1 NE=   45 Coef=  7.07106781D-01  7.07106781D-01
 Mixing orbitals, IMix= 1 IMixAn=  0 NRI=1 NE=   44 Coef= -7.07106781D-01  7.07106781D-01
 Initial guess orbital symmetries:
 Alpha Orbitals:
       Occupied  (A) (A) (A) (A) (A) (A) (A) (A) (A) (A) (A) (A)
                 (A) (A) (A) (A) (A) (A) (A) (A) (A) (A) (A) (A)
                 (A) (A) (A) (A) (A) (A) (A) (A) (A) (A) (A) (A)
                 (A) (A) (A) (A) (A) (A) (A) (A) (A)
       Virtual   (A) (A) (A) (A) (A) (A) (A) (A) (A) (A) (A) (A)
                 (A) (A) (A) (A) (A) (A) (A) (A) (A) (A) (A) (A)
                 (A) (A) (A) (A) (A) (A) (A) (A) (A) (A) (A) (A)
                 (A) (A) (A) (A) (A) (A) (A) (A) (A) (A) (A) (A)
                 (A) (A) (A) (A) (A) (A) (A) (A) (A) (A) (A) (A)
                 (A) (A) (A) (A) (A) (A) (A) (A) (A) (A) (A) (A)
                 (A) (A) (A) (A) (A) (A) (A) (A) (A) (A) (A) (A)
                 (A) (A) (A) (A) (A) (A) (A) (A) (A) (A) (A) (A)
                 (A) (A) (A) (A) (A) (A) (A) (A) (A) (A) (A) (A)
                 (A) (A) (A) (A) (A) (A) (A) (A) (A) (A) (A) (A)
                 (A) (A) (A) (A) (A) (A) (A) (A) (A) (A) (A) (A)
                 (A) (A) (A) (A) (A) (A) (A) (A) (A) (A) (A) (A)
                 (A) (A) (A) (A) (A) (A) (A) (A) (A) (A) (A) (A)
                 (A) (A) (A) (A) (A) (A) (A) (A) (A) (A) (A) (A)
                 (A) (A) (A) (A) (A) (A) (A) (A) (A) (A) (A) (A)
                 (A) (A) (A) (A) (A) (A) (A) (A) (A) (A) (A) (A)
                 (A) (A) (A) (A) (A) (A) (A) (A) (A) (A) (A) (A)
                 (A) (A) (A) (A) (A) (A) (A) (A) (A) (A) (A) (A)
                 (A) (A) (A) (A) (A) (A) (A) (A) (A) (A) (A) (A)
                 (A) (A) (A) (A) (A) (A) (A) (A) (A) (A) (A) (A)
                 (A) (A) (A) (A) (A) (A) (A) (A) (A) (A) (A) (A)
                 (A) (A) (A) (A) (A) (A) (A) (A) (A) (A) (A) (A)
                 (A) (A) (A) (A) (A) (A) (A) (A) (A) (A) (A) (A)
                 (A) (A) (A) (A) (A) (A) (A) (A) (A) (A) (A) (A)
                 (A) (A) (A) (A) (A) (A) (A) (A) (A) (A) (A) (A)
                 (A) (A) (A) (A) (A) (A) (A) (A) (A) (A) (A) (A)
                 (A) (A) (A) (A) (A) (A) (A) (A) (A) (A) (A) (A)
                 (A) (A) (A) (A) (A) (A)
 Beta  Orbitals:
       Occupied  (A) (A) (A) (A) (A) (A) (A) (A) (A) (A) (A) (A)
                 (A) (A) (A) (A) (A) (A) (A) (A) (A) (A) (A) (A)
                 (A) (A) (A) (A) (A) (A) (A) (A) (A) (A) (A) (A)
                 (A) (A) (A) (A) (A) (A) (A) (A)
       Virtual   (A) (A) (A) (A) (A) (A) (A) (A) (A) (A) (A) (A)
                 (A) (A) (A) (A) (A) (A) (A) (A) (A) (A) (A) (A)
                 (A) (A) (A) (A) (A) (A) (A) (A) (A) (A) (A) (A)
                 (A) (A) (A) (A) (A) (A) (A) (A) (A) (A) (A) (A)
                 (A) (A) (A) (A) (A) (A) (A) (A) (A) (A) (A) (A)
                 (A) (A) (A) (A) (A) (A) (A) (A) (A) (A) (A) (A)
                 (A) (A) (A) (A) (A) (A) (A) (A) (A) (A) (A) (A)
                 (A) (A) (A) (A) (A) (A) (A) (A) (A) (A) (A) (A)
                 (A) (A) (A) (A) (A) (A) (A) (A) (A) (A) (A) (A)
                 (A) (A) (A) (A) (A) (A) (A) (A) (A) (A) (A) (A)
                 (A) (A) (A) (A) (A) (A) (A) (A) (A) (A) (A) (A)
                 (A) (A) (A) (A) (A) (A) (A) (A) (A) (A) (A) (A)
                 (A) (A) (A) (A) (A) (A) (A) (A) (A) (A) (A) (A)
                 (A) (A) (A) (A) (A) (A) (A) (A) (A) (A) (A) (A)
                 (A) (A) (A) (A) (A) (A) (A) (A) (A) (A) (A) (A)
                 (A) (A) (A) (A) (A) (A) (A) (A) (A) (A) (A) (A)
                 (A) (A) (A) (A) (A) (A) (A) (A) (A) (A) (A) (A)
                 (A) (A) (A) (A) (A) (A) (A) (A) (A) (A) (A) (A)
                 (A) (A) (A) (A) (A) (A) (A) (A) (A) (A) (A) (A)
                 (A) (A) (A) (A) (A) (A) (A) (A) (A) (A) (A) (A)
                 (A) (A) (A) (A) (A) (A) (A) (A) (A) (A) (A) (A)
                 (A) (A) (A) (A) (A) (A) (A) (A) (A) (A) (A) (A)
                 (A) (A) (A) (A) (A) (A) (A) (A) (A) (A) (A) (A)
                 (A) (A) (A) (A) (A) (A) (A) (A) (A) (A) (A) (A)
                 (A) (A) (A) (A) (A) (A) (A) (A) (A) (A) (A) (A)
                 (A) (A) (A) (A) (A) (A) (A) (A) (A) (A) (A) (A)
                 (A) (A) (A) (A) (A) (A) (A) (A) (A) (A) (A) (A)
                 (A) (A) (A) (A) (A) (A) (A)
 The electronic state of the initial guess is 2-A.
 Initial guess <Sx>= 0.0000 <Sy>= 0.0000 <Sz>= 0.5000 <S**2>= 1.0000 S= 0.6180
 Leave Link  401 at Sat Feb  8 02:36:12 2014, MaxMem= 4026531840 cpu:      38.8
 (Enter /usr/caen/gaussian-09revc/g09/l502.exe)
 UHF open shell SCF:
 Requested convergence on RMS density matrix=1.00D-08 within 128 cycles.
 Requested convergence on MAX density matrix=1.00D-06.
 Requested convergence on             energy=1.00D-06.
 No special actions if energy rises.
 Using DIIS extrapolation, IDIIS=  1040.
 Integral symmetry usage will be decided dynamically.
       263670 words used for storage of precomputed grid.
 IEnd=      734804 IEndB=      734804 NGot=  4026531840 MDV=  4025963059
 LenX=  4025963059 LenY=  4025813622
 Fock matrices will be formed incrementally for  20 cycles.

 Cycle   1  Pass 1  IDiag  1:
 FoFCou: FMM=F IPFlag=           0 FMFlag=      100000 FMFlg1=           0
         NFxFlg=           0 DoJE=F BraDBF=F KetDBF=F FulRan=T
         Omega=  0.000000  0.000000  1.000000  0.000000  0.000000 ICntrl=       0 IOpCl=  1
         NMat0=    1 NMatS0=    1 NMatT0=    0 NMatD0=    1 NMtDS0=    0 NMtDT0=    0
         I1Cent=           0 NGrid=           0.
 Symmetry not used in FoFCou.
 E= -504.340360056724    
 DIIS: error= 3.42D-02 at cycle   1 NSaved=   1.
 NSaved= 1 IEnMin= 1 EnMin= -504.340360056724     IErMin= 1 ErrMin= 3.42D-02
 ErrMax= 3.42D-02 EMaxC= 1.00D-01 BMatC= 1.55D+00 BMatP= 1.55D+00
 IDIUse=3 WtCom= 6.58D-01 WtEn= 3.42D-01
 Coeff-Com:  0.100D+01
 Coeff-En:   0.100D+01
 Coeff:      0.100D+01
 Gap=     0.019 Goal=   None    Shift=    0.000
 Gap=     0.013 Goal=   None    Shift=    0.000
 GapD=    0.013 DampG=0.250 DampE=0.500 DampFc=0.2500 IDamp=-1.
 Damping current iteration by 2.50D-01
 RMSDP=3.30D-02 MaxDP=2.75D+00              OVMax= 6.33D-01

 Cycle   2  Pass 1  IDiag  1:
 RMSU=  7.66D-03    CP:  9.58D-01
 E= -504.482176867158     Delta-E=       -0.141816810434 Rises=F Damp=T
 DIIS: error= 1.46D-02 at cycle   2 NSaved=   2.
 NSaved= 2 IEnMin= 2 EnMin= -504.482176867158     IErMin= 2 ErrMin= 1.46D-02
 ErrMax= 1.46D-02 EMaxC= 1.00D-01 BMatC= 3.77D-01 BMatP= 1.55D+00
 IDIUse=3 WtCom= 8.54D-01 WtEn= 1.46D-01
 Coeff-Com: -0.612D+00 0.161D+01
 Coeff-En:   0.000D+00 0.100D+01
 Coeff:     -0.523D+00 0.152D+01
 Gap=     0.020 Goal=   None    Shift=    0.000
 Gap=     0.352 Goal=   None    Shift=    0.000
 RMSDP=1.26D-02 MaxDP=8.86D-01 DE=-1.42D-01 OVMax= 9.22D-01

 Cycle   3  Pass 1  IDiag  1:
 RMSU=  8.63D-03    CP:  9.58D-01  1.89D-01
 E= -504.286805199639     Delta-E=        0.195371667519 Rises=F Damp=F
 DIIS: error= 5.11D-02 at cycle   3 NSaved=   3.
 NSaved= 3 IEnMin= 2 EnMin= -504.482176867158     IErMin= 2 ErrMin= 1.46D-02
 ErrMax= 5.11D-02 EMaxC= 1.00D-01 BMatC= 1.54D+00 BMatP= 3.77D-01
 IDIUse=2 WtCom= 0.00D+00 WtEn= 1.00D+00
 Coeff-En:   0.000D+00 0.691D+00 0.309D+00
 Coeff:      0.000D+00 0.691D+00 0.309D+00
 Gap=     0.064 Goal=   None    Shift=    0.000
 Gap=    -0.163 Goal=   None    Shift=    0.000
 RMSDP=1.62D-02 MaxDP=1.82D+00 DE= 1.95D-01 OVMax= 9.87D-01

 Cycle   4  Pass 1  IDiag  1:
 RMSU=  5.54D-03    CP:  6.49D-01  3.93D-01 -5.06D-02
 E= -504.168129657738     Delta-E=        0.118675541901 Rises=F Damp=F
 DIIS: error= 2.74D-02 at cycle   4 NSaved=   4.
 NSaved= 4 IEnMin= 2 EnMin= -504.482176867158     IErMin= 2 ErrMin= 1.46D-02
 ErrMax= 2.74D-02 EMaxC= 1.00D-01 BMatC= 1.83D+00 BMatP= 3.77D-01
 IDIUse=2 WtCom= 0.00D+00 WtEn= 1.00D+00
 Coeff-En:   0.000D+00 0.000D+00 0.533D+00 0.467D+00
 Coeff:      0.000D+00 0.000D+00 0.533D+00 0.467D+00
 Gap=    -0.058 Goal=   None    Shift=    0.000
 Gap=     0.352 Goal=   None    Shift=    0.000
 RMSDP=1.14D-02 MaxDP=1.96D+00 DE= 1.19D-01 OVMax= 9.97D-01

 Cycle   5  Pass 1  IDiag  1:
 RMSU=  5.34D-03    CP:  8.26D-01  2.59D-01  4.89D-01  4.24D-01
 E= -504.820061920639     Delta-E=       -0.651932262901 Rises=F Damp=F
 DIIS: error= 9.70D-03 at cycle   5 NSaved=   5.
 NSaved= 5 IEnMin= 5 EnMin= -504.820061920639     IErMin= 5 ErrMin= 9.70D-03
 ErrMax= 9.70D-03 EMaxC= 1.00D-01 BMatC= 1.15D-01 BMatP= 3.77D-01
 IDIUse=3 WtCom= 9.03D-01 WtEn= 9.70D-02
 Coeff-Com: -0.241D+00 0.441D+00 0.195D+00 0.109D+00 0.496D+00
 Coeff-En:   0.000D+00 0.000D+00 0.000D+00 0.000D+00 0.100D+01
 Coeff:     -0.217D+00 0.398D+00 0.176D+00 0.983D-01 0.545D+00
 Gap=     0.124 Goal=   None    Shift=    0.000
 Gap=     0.159 Goal=   None    Shift=    0.000
 RMSDP=3.40D-03 MaxDP=4.66D-01 DE=-6.52D-01 OVMax= 4.54D-02

 Cycle   6  Pass 1  IDiag  1:
 RMSU=  1.39D-03    CP:  7.37D-01  2.94D-01  5.19D-01  4.44D-01  8.51D-01
 E= -504.842622341156     Delta-E=       -0.022560420517 Rises=F Damp=F
 DIIS: error= 6.35D-03 at cycle   6 NSaved=   6.
 NSaved= 6 IEnMin= 6 EnMin= -504.842622341156     IErMin= 6 ErrMin= 6.35D-03
 ErrMax= 6.35D-03 EMaxC= 1.00D-01 BMatC= 4.02D-02 BMatP= 1.15D-01
 IDIUse=3 WtCom= 9.37D-01 WtEn= 6.35D-02
 Coeff-Com: -0.156D+00 0.226D+00 0.595D-01 0.269D-01 0.368D+00 0.476D+00
 Coeff-En:   0.000D+00 0.000D+00 0.000D+00 0.000D+00 0.120D+00 0.880D+00
 Coeff:     -0.146D+00 0.212D+00 0.557D-01 0.252D-01 0.352D+00 0.502D+00
 Gap=     0.158 Goal=   None    Shift=    0.000
 Gap=     0.195 Goal=   None    Shift=    0.000
 RMSDP=1.07D-03 MaxDP=1.37D-01 DE=-2.26D-02 OVMax= 3.05D-02

 Cycle   7  Pass 1  IDiag  1:
 RMSU=  6.43D-04    CP:  7.55D-01  2.94D-01  5.03D-01  4.85D-01  8.61D-01
                    CP:  8.25D-01
 E= -504.850367267838     Delta-E=       -0.007744926682 Rises=F Damp=F
 DIIS: error= 1.87D-03 at cycle   7 NSaved=   7.
 NSaved= 7 IEnMin= 7 EnMin= -504.850367267838     IErMin= 7 ErrMin= 1.87D-03
 ErrMax= 1.87D-03 EMaxC= 1.00D-01 BMatC= 3.36D-03 BMatP= 4.02D-02
 IDIUse=3 WtCom= 9.81D-01 WtEn= 1.87D-02
 Coeff-Com: -0.425D-02 0.177D-01 0.364D-02 0.111D-01 0.876D-02 0.180D+00
 Coeff-Com:  0.783D+00
 Coeff-En:   0.000D+00 0.000D+00 0.000D+00 0.000D+00 0.000D+00 0.000D+00
 Coeff-En:   0.100D+01
 Coeff:     -0.417D-02 0.174D-01 0.357D-02 0.109D-01 0.860D-02 0.177D+00
 Coeff:      0.787D+00
 Gap=     0.162 Goal=   None    Shift=    0.000
 Gap=     0.213 Goal=   None    Shift=    0.000
 RMSDP=3.68D-04 MaxDP=5.49D-02 DE=-7.74D-03 OVMax= 1.33D-02

 Cycle   8  Pass 1  IDiag  1:
 RMSU=  1.96D-04    CP:  7.50D-01  2.90D-01  4.95D-01  4.85D-01  8.65D-01
                    CP:  9.12D-01  1.05D+00
 E= -504.851035386048     Delta-E=       -0.000668118210 Rises=F Damp=F
 DIIS: error= 8.84D-04 at cycle   8 NSaved=   8.
 NSaved= 8 IEnMin= 8 EnMin= -504.851035386048     IErMin= 8 ErrMin= 8.84D-04
 ErrMax= 8.84D-04 EMaxC= 1.00D-01 BMatC= 1.57D-03 BMatP= 3.36D-03
 IDIUse=3 WtCom= 9.91D-01 WtEn= 8.84D-03
 Coeff-Com:  0.373D-01-0.400D-01-0.720D-02 0.106D-01-0.978D-01-0.416D-01
 Coeff-Com:  0.499D+00 0.640D+00
 Coeff-En:   0.000D+00 0.000D+00 0.000D+00 0.000D+00 0.000D+00 0.000D+00
 Coeff-En:   0.514D-01 0.949D+00
 Coeff:      0.369D-01-0.396D-01-0.714D-02 0.105D-01-0.970D-01-0.412D-01
 Coeff:      0.495D+00 0.643D+00
 Gap=     0.169 Goal=   None    Shift=    0.000
 Gap=     0.218 Goal=   None    Shift=    0.000
 RMSDP=2.47D-04 MaxDP=3.49D-02 DE=-6.68D-04 OVMax= 9.66D-03

 Cycle   9  Pass 1  IDiag  1:
 RMSU=  1.16D-04    CP:  7.47D-01  2.87D-01  4.93D-01  4.90D-01  8.53D-01
                    CP:  9.43D-01  1.20D+00  8.01D-01
 E= -504.851374263208     Delta-E=       -0.000338877160 Rises=F Damp=F
 DIIS: error= 2.96D-04 at cycle   9 NSaved=   9.
 NSaved= 9 IEnMin= 9 EnMin= -504.851374263208     IErMin= 9 ErrMin= 2.96D-04
 ErrMax= 2.96D-04 EMaxC= 1.00D-01 BMatC= 1.00D-04 BMatP= 1.57D-03
 IDIUse=3 WtCom= 9.97D-01 WtEn= 2.96D-03
 Coeff-Com:  0.898D-02-0.107D-01-0.324D-02 0.449D-02-0.219D-01-0.287D-01
 Coeff-Com: -0.107D-02 0.166D+00 0.886D+00
 Coeff-En:   0.000D+00 0.000D+00 0.000D+00 0.000D+00 0.000D+00 0.000D+00
 Coeff-En:   0.000D+00 0.000D+00 0.100D+01
 Coeff:      0.895D-02-0.106D-01-0.323D-02 0.448D-02-0.218D-01-0.286D-01
 Coeff:     -0.107D-02 0.165D+00 0.887D+00
 Gap=     0.169 Goal=   None    Shift=    0.000
 Gap=     0.220 Goal=   None    Shift=    0.000
 RMSDP=8.03D-05 MaxDP=1.21D-02 DE=-3.39D-04 OVMax= 1.68D-03

 Cycle  10  Pass 1  IDiag  1:
 RMSU=  4.17D-05    CP:  7.46D-01  2.85D-01  4.89D-01  4.93D-01  8.51D-01
                    CP:  9.40D-01  1.22D+00  8.87D-01  9.71D-01
 E= -504.851402289446     Delta-E=       -0.000028026238 Rises=F Damp=F
 DIIS: error= 1.46D-04 at cycle  10 NSaved=  10.
 NSaved=10 IEnMin=10 EnMin= -504.851402289446     IErMin=10 ErrMin= 1.46D-04
 ErrMax= 1.46D-04 EMaxC= 1.00D-01 BMatC= 2.19D-05 BMatP= 1.00D-04
 IDIUse=3 WtCom= 9.99D-01 WtEn= 1.46D-03
 Coeff-Com:  0.130D-02-0.189D-02-0.156D-02 0.219D-02-0.104D-02-0.640D-02
 Coeff-Com: -0.373D-01 0.168D-01 0.332D+00 0.696D+00
 Coeff-En:   0.000D+00 0.000D+00 0.000D+00 0.000D+00 0.000D+00 0.000D+00
 Coeff-En:   0.000D+00 0.000D+00 0.000D+00 0.100D+01
 Coeff:      0.130D-02-0.188D-02-0.156D-02 0.219D-02-0.104D-02-0.640D-02
 Coeff:     -0.372D-01 0.168D-01 0.331D+00 0.697D+00
 Gap=     0.168 Goal=   None    Shift=    0.000
 Gap=     0.220 Goal=   None    Shift=    0.000
 RMSDP=3.21D-05 MaxDP=5.14D-03 DE=-2.80D-05 OVMax= 3.98D-04

 Cycle  11  Pass 1  IDiag  1:
 RMSU=  1.98D-05    CP:  7.46D-01  2.84D-01  4.88D-01  4.93D-01  8.52D-01
                    CP:  9.41D-01  1.21D+00  9.17D-01  1.03D+00  9.91D-01
 E= -504.851406506069     Delta-E=       -0.000004216623 Rises=F Damp=F
 DIIS: error= 4.86D-05 at cycle  11 NSaved=  11.
 NSaved=11 IEnMin=11 EnMin= -504.851406506069     IErMin=11 ErrMin= 4.86D-05
 ErrMax= 4.86D-05 EMaxC= 1.00D-01 BMatC= 6.35D-06 BMatP= 2.19D-05
 IDIUse=1 WtCom= 1.00D+00 WtEn= 0.00D+00
 Coeff-Com: -0.333D-03-0.146D-03-0.517D-03 0.846D-03 0.421D-02 0.402D-02
 Coeff-Com: -0.862D-02-0.270D-01-0.986D-01 0.246D+00 0.880D+00
 Coeff:     -0.333D-03-0.146D-03-0.517D-03 0.846D-03 0.421D-02 0.402D-02
 Coeff:     -0.862D-02-0.270D-01-0.986D-01 0.246D+00 0.880D+00
 Gap=     0.168 Goal=   None    Shift=    0.000
 Gap=     0.221 Goal=   None    Shift=    0.000
 RMSDP=1.81D-05 MaxDP=2.25D-03 DE=-4.22D-06 OVMax= 2.21D-04

 Cycle  12  Pass 1  IDiag  1:
 RMSU=  8.00D-06    CP:  7.46D-01  2.85D-01  4.88D-01  4.93D-01  8.53D-01
                    CP:  9.40D-01  1.20D+00  9.35D-01  1.03D+00  1.00D+00
                    CP:  1.25D+00
 E= -504.851408090789     Delta-E=       -0.000001584720 Rises=F Damp=F
 DIIS: error= 2.28D-05 at cycle  12 NSaved=  12.
 NSaved=12 IEnMin=12 EnMin= -504.851408090789     IErMin=12 ErrMin= 2.28D-05
 ErrMax= 2.28D-05 EMaxC= 1.00D-01 BMatC= 1.03D-06 BMatP= 6.35D-06
 IDIUse=1 WtCom= 1.00D+00 WtEn= 0.00D+00
 Coeff-Com:  0.422D-03-0.657D-03-0.308D-03 0.256D-03 0.381D-03 0.120D-02
 Coeff-Com:  0.757D-02-0.562D-02-0.776D-01-0.697D-01 0.218D+00 0.926D+00
 Coeff:      0.422D-03-0.657D-03-0.308D-03 0.256D-03 0.381D-03 0.120D-02
 Coeff:      0.757D-02-0.562D-02-0.776D-01-0.697D-01 0.218D+00 0.926D+00
 Gap=     0.168 Goal=   None    Shift=    0.000
 Gap=     0.221 Goal=   None    Shift=    0.000
 RMSDP=1.04D-05 MaxDP=1.92D-03 DE=-1.58D-06 OVMax= 1.11D-04

 Cycle  13  Pass 1  IDiag  1:
 RMSU=  2.86D-06    CP:  7.46D-01  2.84D-01  4.87D-01  4.94D-01  8.53D-01
                    CP:  9.39D-01  1.20D+00  9.39D-01  1.02D+00  1.08D+00
                    CP:  1.41D+00  9.86D-01
 E= -504.851408332164     Delta-E=       -0.000000241374 Rises=F Damp=F
 DIIS: error= 7.05D-06 at cycle  13 NSaved=  13.
 NSaved=13 IEnMin=13 EnMin= -504.851408332164     IErMin=13 ErrMin= 7.05D-06
 ErrMax= 7.05D-06 EMaxC= 1.00D-01 BMatC= 1.07D-07 BMatP= 1.03D-06
 IDIUse=1 WtCom= 1.00D+00 WtEn= 0.00D+00
 Coeff-Com:  0.269D-03-0.346D-03-0.134D-03 0.874D-04-0.298D-03 0.508D-04
 Coeff-Com:  0.400D-02 0.110D-02-0.135D-01-0.485D-01-0.290D-01 0.257D+00
 Coeff-Com:  0.829D+00
 Coeff:      0.269D-03-0.346D-03-0.134D-03 0.874D-04-0.298D-03 0.508D-04
 Coeff:      0.400D-02 0.110D-02-0.135D-01-0.485D-01-0.290D-01 0.257D+00
 Coeff:      0.829D+00
 Gap=     0.168 Goal=   None    Shift=    0.000
 Gap=     0.221 Goal=   None    Shift=    0.000
 RMSDP=4.73D-06 MaxDP=1.21D-03 DE=-2.41D-07 OVMax= 4.81D-05

 Cycle  14  Pass 1  IDiag  1:
 RMSU=  1.50D-06    CP:  7.46D-01  2.85D-01  4.87D-01  4.94D-01  8.53D-01
                    CP:  9.39D-01  1.20D+00  9.43D-01  1.03D+00  1.07D+00
                    CP:  1.49D+00  1.14D+00  8.65D-01
 E= -504.851408358928     Delta-E=       -0.000000026764 Rises=F Damp=F
 DIIS: error= 3.02D-06 at cycle  14 NSaved=  14.
 NSaved=14 IEnMin=14 EnMin= -504.851408358928     IErMin=14 ErrMin= 3.02D-06
 ErrMax= 3.02D-06 EMaxC= 1.00D-01 BMatC= 1.64D-08 BMatP= 1.07D-07
 IDIUse=1 WtCom= 1.00D+00 WtEn= 0.00D+00
 Coeff-Com:  0.670D-04-0.649D-04-0.413D-04 0.254D-04-0.201D-03-0.991D-04
 Coeff-Com:  0.856D-03 0.142D-02 0.608D-02-0.107D-01-0.466D-01-0.336D-01
 Coeff-Com:  0.328D+00 0.755D+00
 Coeff:      0.670D-04-0.649D-04-0.413D-04 0.254D-04-0.201D-03-0.991D-04
 Coeff:      0.856D-03 0.142D-02 0.608D-02-0.107D-01-0.466D-01-0.336D-01
 Coeff:      0.328D+00 0.755D+00
 Gap=     0.168 Goal=   None    Shift=    0.000
 Gap=     0.221 Goal=   None    Shift=    0.000
 RMSDP=9.10D-07 MaxDP=1.13D-04 DE=-2.68D-08 OVMax= 1.93D-05

 Cycle  15  Pass 1  IDiag  1:
 RMSU=  3.46D-07    CP:  7.46D-01  2.85D-01  4.87D-01  4.94D-01  8.53D-01
                    CP:  9.39D-01  1.20D+00  9.43D-01  1.03D+00  1.06D+00
                    CP:  1.50D+00  1.16D+00  9.23D-01  1.01D+00
 E= -504.851408363491     Delta-E=       -0.000000004563 Rises=F Damp=F
 DIIS: error= 1.10D-06 at cycle  15 NSaved=  15.
 NSaved=15 IEnMin=15 EnMin= -504.851408363491     IErMin=15 ErrMin= 1.10D-06
 ErrMax= 1.10D-06 EMaxC= 1.00D-01 BMatC= 2.32D-09 BMatP= 1.64D-08
 IDIUse=1 WtCom= 1.00D+00 WtEn= 0.00D+00
 Coeff-Com: -0.162D-04 0.236D-04 0.402D-05-0.540D-06-0.389D-04-0.574D-04
 Coeff-Com: -0.464D-03 0.514D-03 0.572D-02 0.567D-02-0.148D-01-0.734D-01
 Coeff-Com: -0.649D-01 0.299D+00 0.842D+00
 Coeff:     -0.162D-04 0.236D-04 0.402D-05-0.540D-06-0.389D-04-0.574D-04
 Coeff:     -0.464D-03 0.514D-03 0.572D-02 0.567D-02-0.148D-01-0.734D-01
 Coeff:     -0.649D-01 0.299D+00 0.842D+00
 Gap=     0.168 Goal=   None    Shift=    0.000
 Gap=     0.221 Goal=   None    Shift=    0.000
 RMSDP=4.88D-07 MaxDP=8.80D-05 DE=-4.56D-09 OVMax= 1.06D-05

 Cycle  16  Pass 1  IDiag  1:
 RMSU=  1.41D-07    CP:  7.46D-01  2.85D-01  4.87D-01  4.94D-01  8.53D-01
                    CP:  9.39D-01  1.20D+00  9.43D-01  1.02D+00  1.07D+00
                    CP:  1.50D+00  1.17D+00  9.80D-01  1.06D+00  8.94D-01
 E= -504.851408364422     Delta-E=       -0.000000000931 Rises=F Damp=F
 DIIS: error= 4.75D-07 at cycle  16 NSaved=  16.
 NSaved=16 IEnMin=16 EnMin= -504.851408364422     IErMin=16 ErrMin= 4.75D-07
 ErrMax= 4.75D-07 EMaxC= 1.00D-01 BMatC= 1.56D-10 BMatP= 2.32D-09
 IDIUse=1 WtCom= 1.00D+00 WtEn= 0.00D+00
 Coeff-Com: -0.522D-05 0.215D-05 0.488D-05-0.387D-05 0.506D-05-0.195D-04
 Coeff-Com: -0.219D-03-0.176D-04 0.519D-03 0.258D-02 0.289D-02-0.106D-01
 Coeff-Com: -0.604D-01-0.418D-01 0.200D+00 0.907D+00
 Coeff:     -0.522D-05 0.215D-05 0.488D-05-0.387D-05 0.506D-05-0.195D-04
 Coeff:     -0.219D-03-0.176D-04 0.519D-03 0.258D-02 0.289D-02-0.106D-01
 Coeff:     -0.604D-01-0.418D-01 0.200D+00 0.907D+00
 Gap=     0.168 Goal=   None    Shift=    0.000
 Gap=     0.221 Goal=   None    Shift=    0.000
 RMSDP=2.44D-07 MaxDP=5.98D-05 DE=-9.31D-10 OVMax= 3.61D-06

 Cycle  17  Pass 1  IDiag  1:
 RMSU=  6.53D-08    CP:  7.46D-01  2.85D-01  4.87D-01  4.94D-01  8.53D-01
                    CP:  9.39D-01  1.20D+00  9.44D-01  1.03D+00  1.07D+00
                    CP:  1.51D+00  1.18D+00  9.74D-01  1.11D+00  9.86D-01
                    CP:  8.52D-01
 E= -504.851408364529     Delta-E=       -0.000000000107 Rises=F Damp=F
 DIIS: error= 2.24D-07 at cycle  17 NSaved=  17.
 NSaved=17 IEnMin=17 EnMin= -504.851408364529     IErMin=17 ErrMin= 2.24D-07
 ErrMax= 2.24D-07 EMaxC= 1.00D-01 BMatC= 7.59D-11 BMatP= 1.56D-10
 IDIUse=1 WtCom= 1.00D+00 WtEn= 0.00D+00
 Coeff-Com: -0.188D-05 0.162D-05 0.206D-05-0.312D-05 0.102D-04 0.171D-05
 Coeff-Com: -0.603D-05-0.104D-03-0.762D-03 0.101D-03 0.394D-02 0.939D-02
 Coeff-Com: -0.106D-01-0.674D-01-0.685D-01 0.352D+00 0.782D+00
 Coeff:     -0.188D-05 0.162D-05 0.206D-05-0.312D-05 0.102D-04 0.171D-05
 Coeff:     -0.603D-05-0.104D-03-0.762D-03 0.101D-03 0.394D-02 0.939D-02
 Coeff:     -0.106D-01-0.674D-01-0.685D-01 0.352D+00 0.782D+00
 Gap=     0.168 Goal=   None    Shift=    0.000
 Gap=     0.221 Goal=   None    Shift=    0.000
 RMSDP=7.41D-08 MaxDP=1.63D-05 DE=-1.07D-10 OVMax= 1.71D-06

 Cycle  18  Pass 1  IDiag  1:
 RMSU=  2.19D-08    CP:  7.46D-01  2.85D-01  4.87D-01  4.94D-01  8.53D-01
                    CP:  9.39D-01  1.20D+00  9.43D-01  1.03D+00  1.07D+00
                    CP:  1.51D+00  1.18D+00  9.73D-01  1.10D+00  9.76D-01
                    CP:  1.01D+00  9.50D-01
 E= -504.851408364550     Delta-E=       -0.000000000021 Rises=F Damp=F
 DIIS: error= 1.04D-07 at cycle  18 NSaved=  18.
 NSaved=18 IEnMin=18 EnMin= -504.851408364550     IErMin=18 ErrMin= 1.04D-07
 ErrMax= 1.04D-07 EMaxC= 1.00D-01 BMatC= 2.12D-11 BMatP= 7.59D-11
 IDIUse=1 WtCom= 1.00D+00 WtEn= 0.00D+00
 Coeff-Com: -0.135D-05 0.276D-05 0.672D-06-0.197D-05 0.560D-05 0.816D-05
 Coeff-Com:  0.434D-04-0.544D-04-0.450D-03-0.509D-03 0.106D-02 0.638D-02
 Coeff-Com:  0.997D-02-0.189D-01-0.766D-01-0.784D-01 0.315D+00 0.842D+00
 Coeff:     -0.135D-05 0.276D-05 0.672D-06-0.197D-05 0.560D-05 0.816D-05
 Coeff:      0.434D-04-0.544D-04-0.450D-03-0.509D-03 0.106D-02 0.638D-02
 Coeff:      0.997D-02-0.189D-01-0.766D-01-0.784D-01 0.315D+00 0.842D+00
 Gap=     0.168 Goal=   None    Shift=    0.000
 Gap=     0.221 Goal=   None    Shift=    0.000
 RMSDP=4.31D-08 MaxDP=7.21D-06 DE=-2.11D-11 OVMax= 1.04D-06

 Cycle  19  Pass 1  IDiag  1:
 RMSU=  1.07D-08    CP:  7.46D-01  2.85D-01  4.87D-01  4.94D-01  8.53D-01
                    CP:  9.39D-01  1.20D+00  9.43D-01  1.03D+00  1.07D+00
                    CP:  1.51D+00  1.17D+00  9.74D-01  1.09D+00  9.84D-01
                    CP:  1.02D+00  1.08D+00  1.13D+00
 E= -504.851408364557     Delta-E=       -0.000000000007 Rises=F Damp=F
 DIIS: error= 5.05D-08 at cycle  19 NSaved=  19.
 NSaved=19 IEnMin=19 EnMin= -504.851408364557     IErMin=19 ErrMin= 5.05D-08
 ErrMax= 5.05D-08 EMaxC= 1.00D-01 BMatC= 3.46D-12 BMatP= 2.12D-11
 IDIUse=1 WtCom= 1.00D+00 WtEn= 0.00D+00
 Coeff-Com: -0.439D-06 0.854D-06 0.127D-06-0.567D-06-0.111D-05 0.159D-05
 Coeff-Com:  0.271D-05 0.761D-05 0.873D-04-0.437D-04-0.603D-03-0.110D-02
 Coeff-Com:  0.322D-02 0.101D-01 0.529D-02-0.824D-01-0.136D+00 0.150D+00
 Coeff-Com:  0.105D+01
 Coeff:     -0.439D-06 0.854D-06 0.127D-06-0.567D-06-0.111D-05 0.159D-05
 Coeff:      0.271D-05 0.761D-05 0.873D-04-0.437D-04-0.603D-03-0.110D-02
 Coeff:      0.322D-02 0.101D-01 0.529D-02-0.824D-01-0.136D+00 0.150D+00
 Coeff:      0.105D+01
 Gap=     0.168 Goal=   None    Shift=    0.000
 Gap=     0.221 Goal=   None    Shift=    0.000
 RMSDP=1.47D-08 MaxDP=1.61D-06 DE=-7.05D-12 OVMax= 5.30D-07

 Cycle  20  Pass 1  IDiag  1:
 Restarting incremental Fock formation.
 E= -504.851408364586     Delta-E=       -0.000000000029 Rises=F Damp=F
 DIIS: error= 1.16D-08 at cycle  20 NSaved=  20.
 NSaved=20 IEnMin=20 EnMin= -504.851408364586     IErMin=20 ErrMin= 1.16D-08
 ErrMax= 1.16D-08 EMaxC= 1.00D-01 BMatC= 3.27D-13 BMatP= 3.46D-12
 IDIUse=1 WtCom= 1.00D+00 WtEn= 0.00D+00
 Coeff-Com: -0.233D-06 0.296D-06 0.759D-07-0.169D-06-0.106D-05-0.721D-06
 Coeff-Com: -0.433D-05 0.857D-05 0.813D-04 0.469D-04-0.322D-03-0.105D-02
 Coeff-Com: -0.189D-03 0.484D-02 0.105D-01-0.136D-01-0.789D-01-0.520D-01
 Coeff-Com:  0.317D+00 0.813D+00
 Coeff:     -0.233D-06 0.296D-06 0.759D-07-0.169D-06-0.106D-05-0.721D-06
 Coeff:     -0.433D-05 0.857D-05 0.813D-04 0.469D-04-0.322D-03-0.105D-02
 Coeff:     -0.189D-03 0.484D-02 0.105D-01-0.136D-01-0.789D-01-0.520D-01
 Coeff:      0.317D+00 0.813D+00
 Gap=     0.168 Goal=   None    Shift=    0.000
 Gap=     0.221 Goal=   None    Shift=    0.000
 RMSDP=1.00D-08 MaxDP=1.70D-06 DE=-2.89D-11 OVMax= 1.32D-07

 Cycle  21  Pass 1  IDiag  1:
 RMSU=  9.30D-09    CP:  1.00D+00
 E= -504.851408364576     Delta-E=        0.000000000010 Rises=F Damp=F
 DIIS: error= 3.62D-09 at cycle  21 NSaved=  20.
 NSaved=20 IEnMin=19 EnMin= -504.851408364586     IErMin=20 ErrMin= 3.62D-09
 ErrMax= 3.62D-09 EMaxC= 1.00D-01 BMatC= 3.75D-14 BMatP= 3.27D-13
 IDIUse=1 WtCom= 1.00D+00 WtEn= 0.00D+00
 Coeff-Com: -0.196D-07-0.152D-07 0.243D-07-0.155D-06-0.443D-06-0.154D-05
 Coeff-Com:  0.162D-05 0.112D-04 0.184D-04-0.611D-05-0.120D-03-0.457D-03
 Coeff-Com: -0.309D-04 0.229D-02 0.758D-02-0.452D-02-0.351D-01-0.558D-01
 Coeff-Com:  0.219D+00 0.867D+00
 Coeff:     -0.196D-07-0.152D-07 0.243D-07-0.155D-06-0.443D-06-0.154D-05
 Coeff:      0.162D-05 0.112D-04 0.184D-04-0.611D-05-0.120D-03-0.457D-03
 Coeff:     -0.309D-04 0.229D-02 0.758D-02-0.452D-02-0.351D-01-0.558D-01
 Coeff:      0.219D+00 0.867D+00
 Gap=     0.168 Goal=   None    Shift=    0.000
 Gap=     0.221 Goal=   None    Shift=    0.000
 RMSDP=2.67D-09 MaxDP=4.82D-07 DE= 9.55D-12 OVMax= 3.58D-08

 SCF Done:  E(UB3LYP) =  -504.851408365     A.U. after   21 cycles
             Convg  =    0.2671D-08             -V/T =  2.0045
 <Sx>= 0.0000 <Sy>= 0.0000 <Sz>= 0.5000 <S**2>= 0.7540 S= 0.5020
 <L.S>= 0.000000000000E+00
 KE= 5.026004817159D+02 PE=-2.483941847987D+03 EE= 8.226806905345D+02
 Annihilation of the first spin contaminant:
 S**2 before annihilation     0.7540,   after     0.7500
 Leave Link  502 at Sat Feb  8 02:44:03 2014, MaxMem= 4026531840 cpu:    3735.0
 (Enter /usr/caen/gaussian-09revc/g09/l601.exe)
 Copying SCF densities to generalized density rwf, IOpCl= 1 IROHF=0.

 **********************************************************************

            Population analysis using the SCF density.

 **********************************************************************

 Orbital symmetries:
 Alpha Orbitals:
       Occupied  (A) (A) (A) (A) (A) (A) (A) (A) (A) (A) (A) (A)
                 (A) (A) (A) (A) (A) (A) (A) (A) (A) (A) (A) (A)
                 (A) (A) (A) (A) (A) (A) (A) (A) (A) (A) (A) (A)
                 (A) (A) (A) (A) (A) (A) (A) (A) (A)
       Virtual   (A) (A) (A) (A) (A) (A) (A) (A) (A) (A) (A) (A)
                 (A) (A) (A) (A) (A) (A) (A) (A) (A) (A) (A) (A)
                 (A) (A) (A) (A) (A) (A) (A) (A) (A) (A) (A) (A)
                 (A) (A) (A) (A) (A) (A) (A) (A) (A) (A) (A) (A)
                 (A) (A) (A) (A) (A) (A) (A) (A) (A) (A) (A) (A)
                 (A) (A) (A) (A) (A) (A) (A) (A) (A) (A) (A) (A)
                 (A) (A) (A) (A) (A) (A) (A) (A) (A) (A) (A) (A)
                 (A) (A) (A) (A) (A) (A) (A) (A) (A) (A) (A) (A)
                 (A) (A) (A) (A) (A) (A) (A) (A) (A) (A) (A) (A)
                 (A) (A) (A) (A) (A) (A) (A) (A) (A) (A) (A) (A)
                 (A) (A) (A) (A) (A) (A) (A) (A) (A) (A) (A) (A)
                 (A) (A) (A) (A) (A) (A) (A) (A) (A) (A) (A) (A)
                 (A) (A) (A) (A) (A) (A) (A) (A) (A) (A) (A) (A)
                 (A) (A) (A) (A) (A) (A) (A) (A) (A) (A) (A) (A)
                 (A) (A) (A) (A) (A) (A) (A) (A) (A) (A) (A) (A)
                 (A) (A) (A) (A) (A) (A) (A) (A) (A) (A) (A) (A)
                 (A) (A) (A) (A) (A) (A) (A) (A) (A) (A) (A) (A)
                 (A) (A) (A) (A) (A) (A) (A) (A) (A) (A) (A) (A)
                 (A) (A) (A) (A) (A) (A) (A) (A) (A) (A) (A) (A)
                 (A) (A) (A) (A) (A) (A) (A) (A) (A) (A) (A) (A)
                 (A) (A) (A) (A) (A) (A) (A) (A) (A) (A) (A) (A)
                 (A) (A) (A) (A) (A) (A) (A) (A) (A) (A) (A) (A)
                 (A) (A) (A) (A) (A) (A) (A) (A) (A) (A) (A) (A)
                 (A) (A) (A) (A) (A) (A) (A) (A) (A) (A) (A) (A)
                 (A) (A) (A) (A) (A) (A) (A) (A) (A) (A) (A) (A)
                 (A) (A) (A) (A) (A) (A) (A) (A) (A) (A) (A) (A)
                 (A) (A) (A) (A) (A) (A) (A) (A) (A) (A) (A) (A)
                 (A) (A) (A) (A) (A) (A)
 Beta  Orbitals:
       Occupied  (A) (A) (A) (A) (A) (A) (A) (A) (A) (A) (A) (A)
                 (A) (A) (A) (A) (A) (A) (A) (A) (A) (A) (A) (A)
                 (A) (A) (A) (A) (A) (A) (A) (A) (A) (A) (A) (A)
                 (A) (A) (A) (A) (A) (A) (A) (A)
       Virtual   (A) (A) (A) (A) (A) (A) (A) (A) (A) (A) (A) (A)
                 (A) (A) (A) (A) (A) (A) (A) (A) (A) (A) (A) (A)
                 (A) (A) (A) (A) (A) (A) (A) (A) (A) (A) (A) (A)
                 (A) (A) (A) (A) (A) (A) (A) (A) (A) (A) (A) (A)
                 (A) (A) (A) (A) (A) (A) (A) (A) (A) (A) (A) (A)
                 (A) (A) (A) (A) (A) (A) (A) (A) (A) (A) (A) (A)
                 (A) (A) (A) (A) (A) (A) (A) (A) (A) (A) (A) (A)
                 (A) (A) (A) (A) (A) (A) (A) (A) (A) (A) (A) (A)
                 (A) (A) (A) (A) (A) (A) (A) (A) (A) (A) (A) (A)
                 (A) (A) (A) (A) (A) (A) (A) (A) (A) (A) (A) (A)
                 (A) (A) (A) (A) (A) (A) (A) (A) (A) (A) (A) (A)
                 (A) (A) (A) (A) (A) (A) (A) (A) (A) (A) (A) (A)
                 (A) (A) (A) (A) (A) (A) (A) (A) (A) (A) (A) (A)
                 (A) (A) (A) (A) (A) (A) (A) (A) (A) (A) (A) (A)
                 (A) (A) (A) (A) (A) (A) (A) (A) (A) (A) (A) (A)
                 (A) (A) (A) (A) (A) (A) (A) (A) (A) (A) (A) (A)
                 (A) (A) (A) (A) (A) (A) (A) (A) (A) (A) (A) (A)
                 (A) (A) (A) (A) (A) (A) (A) (A) (A) (A) (A) (A)
                 (A) (A) (A) (A) (A) (A) (A) (A) (A) (A) (A) (A)
                 (A) (A) (A) (A) (A) (A) (A) (A) (A) (A) (A) (A)
                 (A) (A) (A) (A) (A) (A) (A) (A) (A) (A) (A) (A)
                 (A) (A) (A) (A) (A) (A) (A) (A) (A) (A) (A) (A)
                 (A) (A) (A) (A) (A) (A) (A) (A) (A) (A) (A) (A)
                 (A) (A) (A) (A) (A) (A) (A) (A) (A) (A) (A) (A)
                 (A) (A) (A) (A) (A) (A) (A) (A) (A) (A) (A) (A)
                 (A) (A) (A) (A) (A) (A) (A) (A) (A) (A) (A) (A)
                 (A) (A) (A) (A) (A) (A) (A) (A) (A) (A) (A) (A)
                 (A) (A) (A) (A) (A) (A) (A)
 The electronic state is 2-A.
 Alpha  occ. eigenvalues --  -19.18290 -19.18128 -10.22091 -10.17866 -10.17331
 Alpha  occ. eigenvalues --  -10.17064 -10.16478 -10.16405 -10.15591 -10.15585
 Alpha  occ. eigenvalues --  -10.15476  -1.12215  -0.92375  -0.82082  -0.80048
 Alpha  occ. eigenvalues --   -0.74564  -0.68308  -0.68045  -0.67614  -0.59525
 Alpha  occ. eigenvalues --   -0.56491  -0.55927  -0.52987  -0.49129  -0.46981
 Alpha  occ. eigenvalues --   -0.46348  -0.45304  -0.44135  -0.43409  -0.42101
 Alpha  occ. eigenvalues --   -0.40954  -0.38988  -0.38369  -0.38105  -0.37094
 Alpha  occ. eigenvalues --   -0.36398  -0.36051  -0.34856  -0.33624  -0.33085
 Alpha  occ. eigenvalues --   -0.32398  -0.31257  -0.30971  -0.26877  -0.18501
 Alpha virt. eigenvalues --   -0.01689  -0.00664  -0.00090   0.00670   0.00771
 Alpha virt. eigenvalues --    0.01723   0.02280   0.02501   0.03153   0.03922
 Alpha virt. eigenvalues --    0.04184   0.04447   0.05157   0.05808   0.06325
 Alpha virt. eigenvalues --    0.06756   0.07159   0.07637   0.08166   0.08846
 Alpha virt. eigenvalues --    0.09258   0.09720   0.09914   0.10715   0.10932
 Alpha virt. eigenvalues --    0.11696   0.11809   0.12088   0.12648   0.12813
 Alpha virt. eigenvalues --    0.13042   0.13317   0.13754   0.14068   0.14241
 Alpha virt. eigenvalues --    0.14603   0.14875   0.15076   0.15333   0.15598
 Alpha virt. eigenvalues --    0.15689   0.16336   0.16909   0.17113   0.17656
 Alpha virt. eigenvalues --    0.17911   0.17977   0.18154   0.18323   0.18929
 Alpha virt. eigenvalues --    0.19146   0.19669   0.19718   0.20807   0.20931
 Alpha virt. eigenvalues --    0.21613   0.22067   0.22384   0.22952   0.23032
 Alpha virt. eigenvalues --    0.23349   0.24165   0.24838   0.25069   0.25942
 Alpha virt. eigenvalues --    0.26691   0.27219   0.27407   0.28343   0.28479
 Alpha virt. eigenvalues --    0.29045   0.29466   0.29629   0.30254   0.31004
 Alpha virt. eigenvalues --    0.32151   0.32266   0.33069   0.33991   0.34084
 Alpha virt. eigenvalues --    0.34626   0.35225   0.35658   0.36472   0.36682
 Alpha virt. eigenvalues --    0.37505   0.39339   0.39606   0.40091   0.41348
 Alpha virt. eigenvalues --    0.43053   0.44751   0.45307   0.47326   0.47812
 Alpha virt. eigenvalues --    0.49869   0.50471   0.50768   0.51576   0.52465
 Alpha virt. eigenvalues --    0.53825   0.55251   0.55853   0.56396   0.58513
 Alpha virt. eigenvalues --    0.59872   0.60307   0.60753   0.60984   0.62133
 Alpha virt. eigenvalues --    0.63841   0.64051   0.65847   0.66150   0.66500
 Alpha virt. eigenvalues --    0.66940   0.67921   0.68534   0.68805   0.69334
 Alpha virt. eigenvalues --    0.70952   0.71406   0.71876   0.72753   0.73195
 Alpha virt. eigenvalues --    0.74631   0.75181   0.75650   0.77246   0.77768
 Alpha virt. eigenvalues --    0.78207   0.79807   0.80435   0.81132   0.81805
 Alpha virt. eigenvalues --    0.82209   0.84175   0.85220   0.89835   0.93591
 Alpha virt. eigenvalues --    0.95019   0.96600   0.98472   0.99263   1.01478
 Alpha virt. eigenvalues --    1.03557   1.03896   1.04729   1.06682   1.08618
 Alpha virt. eigenvalues --    1.09433   1.13507   1.14654   1.15519   1.16971
 Alpha virt. eigenvalues --    1.17960   1.19204   1.23028   1.23896   1.27172
 Alpha virt. eigenvalues --    1.28255   1.30943   1.34298   1.36311   1.39862
 Alpha virt. eigenvalues --    1.43187   1.45158   1.46014   1.46516   1.47273
 Alpha virt. eigenvalues --    1.48964   1.49807   1.50234   1.51809   1.53256
 Alpha virt. eigenvalues --    1.54993   1.55298   1.56918   1.58418   1.59087
 Alpha virt. eigenvalues --    1.59383   1.60175   1.60840   1.61148   1.61871
 Alpha virt. eigenvalues --    1.62742   1.63502   1.64326   1.65237   1.66041
 Alpha virt. eigenvalues --    1.66492   1.68777   1.69495   1.70871   1.71888
 Alpha virt. eigenvalues --    1.72686   1.73965   1.75746   1.76669   1.77284
 Alpha virt. eigenvalues --    1.78920   1.79596   1.81272   1.82264   1.82915
 Alpha virt. eigenvalues --    1.84141   1.85018   1.87753   1.89176   1.91054
 Alpha virt. eigenvalues --    1.94208   1.97649   1.99203   2.01054   2.01723
 Alpha virt. eigenvalues --    2.03761   2.05016   2.07041   2.08314   2.11563
 Alpha virt. eigenvalues --    2.13001   2.14266   2.15125   2.16038   2.17576
 Alpha virt. eigenvalues --    2.19975   2.21484   2.25916   2.26453   2.29848
 Alpha virt. eigenvalues --    2.32015   2.32405   2.36023   2.37571   2.38625
 Alpha virt. eigenvalues --    2.40997   2.43278   2.46549   2.47359   2.49172
 Alpha virt. eigenvalues --    2.49653   2.49936   2.50720   2.52432   2.52922
 Alpha virt. eigenvalues --    2.54000   2.54639   2.55225   2.55841   2.56743
 Alpha virt. eigenvalues --    2.57767   2.58391   2.60920   2.61766   2.63875
 Alpha virt. eigenvalues --    2.63949   2.65559   2.65953   2.69140   2.69953
 Alpha virt. eigenvalues --    2.71941   2.73607   2.75346   2.75901   2.77326
 Alpha virt. eigenvalues --    2.79600   2.79874   2.81181   2.82110   2.83472
 Alpha virt. eigenvalues --    2.87616   2.88245   2.92853   2.93876   2.94899
 Alpha virt. eigenvalues --    2.96820   2.97024   2.98841   3.00291   3.03027
 Alpha virt. eigenvalues --    3.05254   3.07108   3.10094   3.10765   3.14855
 Alpha virt. eigenvalues --    3.17520   3.18012   3.24003   3.28850   3.33807
 Alpha virt. eigenvalues --    3.40189   3.48870   3.53340   3.70529   3.75481
 Alpha virt. eigenvalues --    3.78646   3.79800   3.80713   3.81557   3.83507
 Alpha virt. eigenvalues --    3.83803   3.85793   3.88119   3.88626   3.96215
 Alpha virt. eigenvalues --    3.98698   4.03211   4.07726   4.18698   4.29258
 Alpha virt. eigenvalues --    4.30576   4.31567   4.43777   4.87835   5.01119
 Alpha virt. eigenvalues --    5.08588   5.37845   5.52880   5.65968  23.82871
 Alpha virt. eigenvalues --   23.83335  23.85764  23.87037  23.90932  23.96143
 Alpha virt. eigenvalues --   23.97965  23.98720  23.99145  49.86165  49.89270
  Beta  occ. eigenvalues --  -19.18286 -19.18124 -10.22080 -10.17823 -10.17316
  Beta  occ. eigenvalues --  -10.16561 -10.16487 -10.15685 -10.15592 -10.15585
  Beta  occ. eigenvalues --  -10.15467  -1.12206  -0.92361  -0.81459  -0.79966
  Beta  occ. eigenvalues --   -0.73470  -0.68280  -0.67963  -0.67514  -0.58710
  Beta  occ. eigenvalues --   -0.56085  -0.55134  -0.52948  -0.49032  -0.46816
  Beta  occ. eigenvalues --   -0.45935  -0.45039  -0.43986  -0.42992  -0.41724
  Beta  occ. eigenvalues --   -0.40669  -0.38740  -0.38248  -0.37867  -0.36813
  Beta  occ. eigenvalues --   -0.36081  -0.35812  -0.34772  -0.33487  -0.32815
  Beta  occ. eigenvalues --   -0.32261  -0.31080  -0.30870  -0.26786
  Beta virt. eigenvalues --   -0.04701  -0.01687  -0.00605  -0.00085   0.00695
  Beta virt. eigenvalues --    0.00802   0.01755   0.02276   0.02526   0.03181
  Beta virt. eigenvalues --    0.03950   0.04199   0.04448   0.05164   0.05860
  Beta virt. eigenvalues --    0.06329   0.06778   0.07192   0.07677   0.08231
  Beta virt. eigenvalues --    0.08945   0.09346   0.09781   0.10015   0.10758
  Beta virt. eigenvalues --    0.10937   0.11738   0.11873   0.12103   0.12788
  Beta virt. eigenvalues --    0.12882   0.13093   0.13364   0.13772   0.14074
  Beta virt. eigenvalues --    0.14269   0.14611   0.14946   0.15110   0.15411
  Beta virt. eigenvalues --    0.15624   0.15717   0.16372   0.17020   0.17188
  Beta virt. eigenvalues --    0.17694   0.18013   0.18060   0.18295   0.18489
  Beta virt. eigenvalues --    0.19003   0.19230   0.19757   0.19876   0.20815
  Beta virt. eigenvalues --    0.21101   0.21645   0.22236   0.22632   0.23003
  Beta virt. eigenvalues --    0.23108   0.23450   0.24244   0.24997   0.25158
  Beta virt. eigenvalues --    0.26173   0.26919   0.27370   0.27585   0.28419
  Beta virt. eigenvalues --    0.28872   0.29344   0.29529   0.29686   0.30379
  Beta virt. eigenvalues --    0.31307   0.32425   0.32666   0.33079   0.34049
  Beta virt. eigenvalues --    0.34168   0.34672   0.35526   0.35863   0.36532
  Beta virt. eigenvalues --    0.36891   0.37651   0.39435   0.39760   0.40212
  Beta virt. eigenvalues --    0.41407   0.43248   0.44834   0.45490   0.47392
  Beta virt. eigenvalues --    0.47924   0.50085   0.50654   0.50887   0.51894
  Beta virt. eigenvalues --    0.52569   0.54017   0.55370   0.56000   0.56598
  Beta virt. eigenvalues --    0.59011   0.59968   0.60430   0.61040   0.61399
  Beta virt. eigenvalues --    0.63047   0.63969   0.64201   0.66217   0.66542
  Beta virt. eigenvalues --    0.66857   0.67141   0.68049   0.68781   0.69076
  Beta virt. eigenvalues --    0.69425   0.71088   0.71615   0.71997   0.72936
  Beta virt. eigenvalues --    0.73423   0.74935   0.75516   0.75755   0.77427
  Beta virt. eigenvalues --    0.78238   0.78553   0.80055   0.80509   0.81443
  Beta virt. eigenvalues --    0.81985   0.82335   0.84466   0.85459   0.90021
  Beta virt. eigenvalues --    0.94149   0.95461   0.97302   0.99001   0.99989
  Beta virt. eigenvalues --    1.01650   1.03640   1.04021   1.05132   1.06894
  Beta virt. eigenvalues --    1.08716   1.09582   1.13648   1.14767   1.15630
  Beta virt. eigenvalues --    1.17051   1.18147   1.19325   1.23307   1.24220
  Beta virt. eigenvalues --    1.27473   1.28584   1.31050   1.34438   1.37169
  Beta virt. eigenvalues --    1.40617   1.43628   1.45324   1.46383   1.46566
  Beta virt. eigenvalues --    1.47466   1.49018   1.50205   1.50651   1.51975
  Beta virt. eigenvalues --    1.53825   1.55221   1.55533   1.57028   1.58585
  Beta virt. eigenvalues --    1.59243   1.59473   1.60252   1.61009   1.61345
  Beta virt. eigenvalues --    1.62127   1.62972   1.63673   1.64479   1.65310
  Beta virt. eigenvalues --    1.66183   1.67868   1.69026   1.70019   1.71142
  Beta virt. eigenvalues --    1.72042   1.72857   1.74118   1.75995   1.77006
  Beta virt. eigenvalues --    1.77720   1.79097   1.79961   1.81438   1.82579
  Beta virt. eigenvalues --    1.83163   1.84336   1.85226   1.88192   1.89340
  Beta virt. eigenvalues --    1.91276   1.94434   1.97795   1.99629   2.02323
  Beta virt. eigenvalues --    2.02731   2.03929   2.05385   2.07251   2.08423
  Beta virt. eigenvalues --    2.11624   2.13198   2.14367   2.15246   2.16724
  Beta virt. eigenvalues --    2.17749   2.20324   2.22183   2.26354   2.26677
  Beta virt. eigenvalues --    2.30244   2.32210   2.32632   2.36440   2.37801
  Beta virt. eigenvalues --    2.39022   2.41279   2.43504   2.46691   2.47499
  Beta virt. eigenvalues --    2.49255   2.49714   2.50015   2.50806   2.52515
  Beta virt. eigenvalues --    2.53015   2.54194   2.54895   2.55363   2.55966
  Beta virt. eigenvalues --    2.56868   2.57893   2.58505   2.61056   2.61796
  Beta virt. eigenvalues --    2.63995   2.64105   2.65653   2.66102   2.69722
  Beta virt. eigenvalues --    2.70366   2.71989   2.73806   2.75472   2.76016
  Beta virt. eigenvalues --    2.77463   2.79718   2.80161   2.81405   2.82265
  Beta virt. eigenvalues --    2.83736   2.88106   2.88467   2.93963   2.94241
  Beta virt. eigenvalues --    2.95103   2.97060   2.97452   2.99375   3.01114
  Beta virt. eigenvalues --    3.03618   3.06710   3.07776   3.10129   3.10943
  Beta virt. eigenvalues --    3.15056   3.17605   3.18078   3.24073   3.29068
  Beta virt. eigenvalues --    3.33824   3.40696   3.48967   3.53763   3.70542
  Beta virt. eigenvalues --    3.75682   3.78661   3.79873   3.80730   3.81707
  Beta virt. eigenvalues --    3.83526   3.83817   3.85855   3.88291   3.88824
  Beta virt. eigenvalues --    3.96654   3.98789   4.03352   4.08313   4.19313
  Beta virt. eigenvalues --    4.29287   4.30591   4.31802   4.44501   4.87839
  Beta virt. eigenvalues --    5.01131   5.08599   5.37853   5.52887   5.65976
  Beta virt. eigenvalues --   23.82891  23.83508  23.86427  23.87437  23.91215
  Beta virt. eigenvalues --   23.96079  23.97978  23.98720  23.99157  49.86169
  Beta virt. eigenvalues --   49.89274
          Condensed to atoms (all electrons):
              1          2          3          4          5          6
     1  C    6.091335   0.359827   0.416097   0.394722  -0.442115  -0.081799
     2  H    0.359827   0.599562  -0.040409  -0.033673  -0.060962  -0.019394
     3  H    0.416097  -0.040409   0.516021  -0.031247   0.049540   0.015239
     4  H    0.394722  -0.033673  -0.031247   0.580619   0.002376  -0.006831
     5  C   -0.442115  -0.060962   0.049540   0.002376   7.720464   0.551500
     6  H   -0.081799  -0.019394   0.015239  -0.006831   0.551500   0.642113
     7  C    0.626139  -0.043368  -0.056608   0.029472  -1.568157  -0.034571
     8  H    0.015448  -0.002055   0.002112   0.002679   0.003816  -0.011110
     9  H    0.046170   0.002558   0.004899  -0.001434  -0.143667   0.004451
    10  C   -0.317473   0.046165  -0.008300  -0.011242   0.601057  -0.119174
    11  H    0.008392  -0.000073   0.000890   0.000394  -0.124486  -0.003581
    12  C   -0.125922   0.019762  -0.009092  -0.006572  -0.351934   0.002771
    13  H    0.004199  -0.000925   0.000810   0.000160  -0.018023   0.000335
    14  H   -0.002970   0.000898  -0.000743  -0.000104   0.002052  -0.002120
    15  C   -0.018923   0.001382  -0.000179  -0.000865  -0.154804  -0.012048
    16  H    0.000793  -0.000139   0.000045  -0.000025  -0.010348  -0.000525
    17  C   -0.004310   0.000686  -0.000300  -0.000176  -0.022161  -0.001147
    18  H    0.000023  -0.000015   0.000011  -0.000005  -0.002509  -0.000030
    19  H   -0.000194   0.000020  -0.000013  -0.000007  -0.001060  -0.000128
    20  H   -0.000014  -0.000011   0.000015   0.000008   0.002717   0.000112
    21  C   -0.325876   0.036280  -0.032978  -0.054307  -0.507071  -0.077018
    22  H   -0.088728   0.010136  -0.003025  -0.006576  -0.142993  -0.010383
    23  H    0.038571  -0.006391   0.002519   0.004906   0.104195   0.013817
    24  C    0.009965  -0.000252   0.000305   0.000415   0.102981   0.005376
    25  H    0.000583  -0.000005   0.000026   0.000011   0.004446   0.000428
    26  H   -0.000613   0.000062  -0.000034  -0.000038  -0.007973  -0.000852
    27  H   -0.001636   0.000113  -0.000224  -0.000112  -0.007684  -0.000411
    28  O   -0.022659   0.001095   0.001127  -0.005474  -0.007763   0.011095
    29  O   -0.027772   0.000996   0.001543  -0.000709  -0.008764  -0.002587
    30  H    0.000014   0.000073  -0.000372  -0.000345  -0.025055  -0.000282
              7          8          9         10         11         12
     1  C    0.626139   0.015448   0.046170  -0.317473   0.008392  -0.125922
     2  H   -0.043368  -0.002055   0.002558   0.046165  -0.000073   0.019762
     3  H   -0.056608   0.002112   0.004899  -0.008300   0.000890  -0.009092
     4  H    0.029472   0.002679  -0.001434  -0.011242   0.000394  -0.006572
     5  C   -1.568157   0.003816  -0.143667   0.601057  -0.124486  -0.351934
     6  H   -0.034571  -0.011110   0.004451  -0.119174  -0.003581   0.002771
     7  C   12.013801   0.303104   0.623546  -4.142221   0.184228  -0.023557
     8  H    0.303104   0.673509  -0.062797   0.130206  -0.000162  -0.205071
     9  H    0.623546  -0.062797   0.529804  -0.240977   0.003312   0.100146
    10  C   -4.142221   0.130206  -0.240977  11.042154   0.200617  -2.869223
    11  H    0.184228  -0.000162   0.003312   0.200617   0.563244  -0.015656
    12  C   -0.023557  -0.205071   0.100146  -2.869223  -0.015656  10.676906
    13  H    0.089167  -0.000924   0.007416  -0.255727   0.006862   0.530437
    14  H   -0.149641   0.016369  -0.005466   0.146255   0.000433   0.280471
    15  C   -0.299492   0.015451  -0.037230   0.908131   0.020001  -1.626303
    16  H    0.032730  -0.001566   0.000304  -0.045690   0.009199  -0.093076
    17  C   -0.158085  -0.009722   0.002303  -0.355154  -0.002808   0.652750
    18  H    0.007489  -0.000633   0.000690  -0.003048   0.002018  -0.072994
    19  H   -0.007594  -0.000128  -0.000019   0.001904   0.000199   0.042185
    20  H   -0.002246   0.001165  -0.000834   0.008429  -0.000921  -0.030561
    21  C   -0.356227  -0.018652  -0.031405   0.260903   0.020936   0.405479
    22  H   -0.023157  -0.008179  -0.003598   0.039432   0.001674   0.052070
    23  H   -0.135044   0.002490   0.010123   0.084620  -0.010911  -0.082769
    24  C   -0.045153  -0.000509   0.010135   0.346669  -0.034680  -0.219714
    25  H   -0.008424  -0.000365   0.001075   0.007790  -0.002285   0.037811
    26  H   -0.005925   0.000792  -0.002222   0.011112   0.002958  -0.088046
    27  H    0.004480   0.000732  -0.001336   0.025538  -0.009301  -0.018790
    28  O   -0.119647  -0.006448   0.016649   0.046565   0.001539  -0.005855
    29  O   -0.141419   0.002241  -0.013111   0.105400  -0.002508   0.021434
    30  H   -0.036295  -0.001905   0.001231   0.008303  -0.000098   0.015296
             13         14         15         16         17         18
     1  C    0.004199  -0.002970  -0.018923   0.000793  -0.004310   0.000023
     2  H   -0.000925   0.000898   0.001382  -0.000139   0.000686  -0.000015
     3  H    0.000810  -0.000743  -0.000179   0.000045  -0.000300   0.000011
     4  H    0.000160  -0.000104  -0.000865  -0.000025  -0.000176  -0.000005
     5  C   -0.018023   0.002052  -0.154804  -0.010348  -0.022161  -0.002509
     6  H    0.000335  -0.002120  -0.012048  -0.000525  -0.001147  -0.000030
     7  C    0.089167  -0.149641  -0.299492   0.032730  -0.158085   0.007489
     8  H   -0.000924   0.016369   0.015451  -0.001566  -0.009722  -0.000633
     9  H    0.007416  -0.005466  -0.037230   0.000304   0.002303   0.000690
    10  C   -0.255727   0.146255   0.908131  -0.045690  -0.355154  -0.003048
    11  H    0.006862   0.000433   0.020001   0.009199  -0.002808   0.002018
    12  C    0.530437   0.280471  -1.626303  -0.093076   0.652750  -0.072994
    13  H    0.572435  -0.073234   0.011010   0.020815  -0.005760   0.005344
    14  H   -0.073234   0.674688  -0.053623  -0.021360   0.018357  -0.001646
    15  C    0.011010  -0.053623   6.552739   0.532590  -0.273442   0.077488
    16  H    0.020815  -0.021360   0.532590   0.620107  -0.057995   0.016473
    17  C   -0.005760   0.018357  -0.273442  -0.057995   5.801176   0.375568
    18  H    0.005344  -0.001646   0.077488   0.016473   0.375568   0.564224
    19  H   -0.003523   0.002243  -0.082846  -0.013953   0.407314  -0.034905
    20  H    0.002603   0.004059  -0.024708  -0.012124   0.392189  -0.045678
    21  C   -0.012422   0.006807   0.084781   0.000346   0.023657   0.000764
    22  H   -0.001242   0.000065   0.009368  -0.000111   0.002208   0.000044
    23  H    0.006948  -0.001977  -0.021165   0.002576  -0.004729   0.000002
    24  C   -0.046116   0.020059  -0.076057  -0.108123  -0.159949  -0.031383
    25  H   -0.004272  -0.001460  -0.118220  -0.006809   0.001413   0.002147
    26  H    0.009489  -0.001465   0.081210   0.013128  -0.011153   0.011110
    27  H    0.001683   0.002219  -0.029306  -0.013892   0.010845  -0.006238
    28  O    0.001029  -0.000149  -0.000504   0.000043  -0.000613   0.000034
    29  O    0.004654  -0.000171  -0.004796   0.000223   0.002777  -0.000407
    30  H   -0.001901   0.000207  -0.001500  -0.000099   0.000231   0.000006
             19         20         21         22         23         24
     1  C   -0.000194  -0.000014  -0.325876  -0.088728   0.038571   0.009965
     2  H    0.000020  -0.000011   0.036280   0.010136  -0.006391  -0.000252
     3  H   -0.000013   0.000015  -0.032978  -0.003025   0.002519   0.000305
     4  H   -0.000007   0.000008  -0.054307  -0.006576   0.004906   0.000415
     5  C   -0.001060   0.002717  -0.507071  -0.142993   0.104195   0.102981
     6  H   -0.000128   0.000112  -0.077018  -0.010383   0.013817   0.005376
     7  C   -0.007594  -0.002246  -0.356227  -0.023157  -0.135044  -0.045153
     8  H   -0.000128   0.001165  -0.018652  -0.008179   0.002490  -0.000509
     9  H   -0.000019  -0.000834  -0.031405  -0.003598   0.010123   0.010135
    10  C    0.001904   0.008429   0.260903   0.039432   0.084620   0.346669
    11  H    0.000199  -0.000921   0.020936   0.001674  -0.010911  -0.034680
    12  C    0.042185  -0.030561   0.405479   0.052070  -0.082769  -0.219714
    13  H   -0.003523   0.002603  -0.012422  -0.001242   0.006948  -0.046116
    14  H    0.002243   0.004059   0.006807   0.000065  -0.001977   0.020059
    15  C   -0.082846  -0.024708   0.084781   0.009368  -0.021165  -0.076057
    16  H   -0.013953  -0.012124   0.000346  -0.000111   0.002576  -0.108123
    17  C    0.407314   0.392189   0.023657   0.002208  -0.004729  -0.159949
    18  H   -0.034905  -0.045678   0.000764   0.000044   0.000002  -0.031383
    19  H    0.570684  -0.021888   0.001242   0.000091  -0.000481  -0.011068
    20  H   -0.021888   0.582159  -0.000932  -0.000042   0.000161   0.018623
    21  C    0.001242  -0.000932   6.302300   0.489045   0.212261  -0.085960
    22  H    0.000091  -0.000042   0.489045   0.613347  -0.069279  -0.007278
    23  H   -0.000481   0.000161   0.212261  -0.069279   0.669788   0.041301
    24  C   -0.011068   0.018623  -0.085960  -0.007278   0.041301   5.742294
    25  H    0.001835   0.000559  -0.006035  -0.000475   0.004208   0.442370
    26  H    0.001452  -0.002016   0.005435   0.000783   0.000742   0.352242
    27  H    0.002987  -0.002249   0.018661   0.001232  -0.015387   0.389998
    28  O   -0.000016  -0.000027   0.239373  -0.080505  -0.033438   0.003531
    29  O    0.000042  -0.000043   0.024689   0.035123   0.009411   0.019159
    30  H   -0.000011   0.000019   0.040096   0.000131  -0.002401   0.000636
             25         26         27         28         29         30
     1  C    0.000583  -0.000613  -0.001636  -0.022659  -0.027772   0.000014
     2  H   -0.000005   0.000062   0.000113   0.001095   0.000996   0.000073
     3  H    0.000026  -0.000034  -0.000224   0.001127   0.001543  -0.000372
     4  H    0.000011  -0.000038  -0.000112  -0.005474  -0.000709  -0.000345
     5  C    0.004446  -0.007973  -0.007684  -0.007763  -0.008764  -0.025055
     6  H    0.000428  -0.000852  -0.000411   0.011095  -0.002587  -0.000282
     7  C   -0.008424  -0.005925   0.004480  -0.119647  -0.141419  -0.036295
     8  H   -0.000365   0.000792   0.000732  -0.006448   0.002241  -0.001905
     9  H    0.001075  -0.002222  -0.001336   0.016649  -0.013111   0.001231
    10  C    0.007790   0.011112   0.025538   0.046565   0.105400   0.008303
    11  H   -0.002285   0.002958  -0.009301   0.001539  -0.002508  -0.000098
    12  C    0.037811  -0.088046  -0.018790  -0.005855   0.021434   0.015296
    13  H   -0.004272   0.009489   0.001683   0.001029   0.004654  -0.001901
    14  H   -0.001460  -0.001465   0.002219  -0.000149  -0.000171   0.000207
    15  C   -0.118220   0.081210  -0.029306  -0.000504  -0.004796  -0.001500
    16  H   -0.006809   0.013128  -0.013892   0.000043   0.000223  -0.000099
    17  C    0.001413  -0.011153   0.010845  -0.000613   0.002777   0.000231
    18  H    0.002147   0.011110  -0.006238   0.000034  -0.000407   0.000006
    19  H    0.001835   0.001452   0.002987  -0.000016   0.000042  -0.000011
    20  H    0.000559  -0.002016  -0.002249  -0.000027  -0.000043   0.000019
    21  C   -0.006035   0.005435   0.018661   0.239373   0.024689   0.040096
    22  H   -0.000475   0.000783   0.001232  -0.080505   0.035123   0.000131
    23  H    0.004208   0.000742  -0.015387  -0.033438   0.009411  -0.002401
    24  C    0.442370   0.352242   0.389998   0.003531   0.019159   0.000636
    25  H    0.569709  -0.036121  -0.031068   0.000172   0.001297   0.000024
    26  H   -0.036121   0.575799  -0.045241  -0.000220   0.000396  -0.001022
    27  H   -0.031068  -0.045241   0.587365  -0.000177  -0.005313   0.001166
    28  O    0.000172  -0.000220  -0.000177   8.004390   0.023348  -0.006870
    29  O    0.001297   0.000396  -0.005313   0.023348   7.954585   0.206298
    30  H    0.000024  -0.001022   0.001166  -0.006870   0.206298   0.544762
 Mulliken atomic charges:
              1
     1  C   -0.551272
     2  H    0.128057
     3  H    0.172323
     4  H    0.143977
     5  C    0.462384
     6  H    0.136754
     7  C   -0.557328
     8  H    0.160114
     9  H    0.179283
    10  C    0.346975
    11  H    0.180575
    12  C   -0.992381
    13  H    0.148675
    14  H    0.140949
    15  C    0.541862
    16  H    0.136464
    17  C   -0.623971
    18  H    0.136053
    19  H    0.145637
    20  H    0.131475
    21  C   -0.664173
    22  H    0.190820
    23  H    0.175333
    24  C   -0.679817
    25  H    0.139636
    26  H    0.136231
    27  H    0.141346
    28  O   -0.059627
    29  O   -0.206017
    30  H    0.259663
 Sum of Mulliken atomic charges =   0.00000
 Mulliken charges with hydrogens summed into heavy atoms:
              1
     1  C   -0.106915
     5  C    0.599138
     7  C   -0.217931
    10  C    0.527550
    12  C   -0.702757
    15  C    0.678325
    17  C   -0.210805
    21  C   -0.298019
    24  C   -0.262604
    28  O   -0.059627
    29  O    0.053646
 Sum of Mulliken charges with hydrogens summed into heavy atoms =   0.00000
          Atomic-Atomic Spin Densities.
              1          2          3          4          5          6
     1  C    0.003606  -0.001037   0.000477   0.001277  -0.014666  -0.000209
     2  H   -0.001037   0.000170  -0.000061  -0.000210   0.005010  -0.000790
     3  H    0.000477  -0.000061   0.000188   0.000149  -0.003388   0.000089
     4  H    0.001277  -0.000210   0.000149  -0.000309  -0.001863   0.000320
     5  C   -0.014666   0.005010  -0.003388  -0.001863   0.127743  -0.007504
     6  H   -0.000209  -0.000790   0.000089   0.000320  -0.007504   0.003062
     7  C    0.018736  -0.015011   0.007469   0.002070  -0.279518   0.038900
     8  H   -0.006080   0.004935  -0.000995  -0.000621   0.028975  -0.009161
     9  H   -0.001768  -0.000493   0.000109   0.000077   0.002271   0.001634
    10  C   -0.005171   0.010361  -0.006252  -0.001243   0.273189  -0.037411
    11  H    0.000241  -0.000402   0.000197  -0.000002  -0.014411   0.000287
[...]
 003083,0.00013863,-0.00038914,0.00002954,-0.00013780,-0.00003588,-0.00
 003677,-0.00216845,-0.01308706,-0.00931224,0.00107833,0.00157154,0.001
 37822,-0.00110929,0.00054299,0.00022707,0.01848987,-0.15323636,-0.0400
 4869,0.00554620,-0.02344439,-0.01291316,0.00365951,0.00124083,-0.00223
 247,-0.00109067,0.00087559,0.00093618,-0.00065797,0.00028482,0.0005945
 9,-0.00193134,0.00111155,0.00171785,-0.00016873,0.00019554,-0.00019242
 ,-0.00000776,-0.00004511,0.00002496,0.00004894,-0.00003392,-0.00004446
 ,0.02038183,0.47875954,0.00001308,-0.00005222,0.00000786,-0.00001604,-
 0.00000991,-0.00001761,-0.00001137,-0.00000047,-0.00001848,-0.00001405
 ,0.00000263,0.00000842,-0.00005470,0.00008470,-0.00003827,0.00001545,0
 .00003575,-0.00001955,0.00021709,-0.00002714,0.00005918,-0.00006815,0.
 00001404,-0.00008853,-0.00003471,-0.00000718,-0.00005561,0.00075694,-0
 .00065893,0.00018920,-0.00013421,0.00020598,0.00003419,-0.00040215,-0.
 01851231,-0.01226490,0.00106163,-0.00071101,0.00035280,-0.00259064,-0.
 00146505,-0.00129896,0.00979675,-0.03713660,-0.09821539,-0.00432399,0.
 01829390,0.01068216,0.00897870,-0.01992069,-0.01348977,-0.00060649,-0.
 00096400,0.00051402,-0.00153249,0.00026513,0.00098406,0.00278128,-0.00
 009797,-0.00211334,0.00049887,-0.00008153,0.00044840,-0.00009383,0.000
 03530,-0.00005274,0.00002364,-0.00016062,-0.00004315,0.00746137,-0.039
 74177,0.53939159,0.00000282,-0.00001618,0.00002198,-0.00000577,-0.0000
 1597,-0.00001261,0.00000325,0.00000634,-0.00000339,-0.00002629,0.00000
 521,0.00000761,-0.00001782,0.00002542,-0.00007555,0.00000841,-0.000006
 41,0.00000686,0.00007586,-0.00003405,0.00004545,-0.00008885,-0.0000475
 2,-0.00003998,-0.00001823,0.00002235,-0.00000089,0.00010310,-0.0003979
 5,-0.00027681,-0.00001713,0.00016493,-0.00003172,0.00039317,0.00091872
 ,0.00109892,0.00002424,0.00013040,0.00021358,0.00028266,0.00018902,0.0
 0021350,0.00498232,0.00213941,0.00480912,0.00035917,-0.00076706,-0.000
 11944,0.00086450,0.00041890,0.00047213,-0.00006535,-0.00003345,0.00002
 055,0.00032455,0.00009738,-0.00013659,0.00025872,-0.00008208,-0.000052
 54,0.00025397,0.00005964,0.00014463,-0.00007425,-0.00000806,-0.0000064
 8,0.00001068,-0.00007220,-0.00008570,-0.20873167,-0.05860617,-0.110797
 35,0.22582025,-0.00002971,0.00003599,0.00004352,0.00001347,0.00000774,
 -0.00000061,0.00000129,-0.00000623,-0.00000707,-0.00003219,-0.00000258
 ,0.00000109,0.00002538,-0.00003350,-0.00007657,-0.00000190,0.00000805,
 0.00001132,-0.00005715,-0.00000615,0.00016113,-0.00002320,0.00000300,-
 0.00002252,0.00002107,-0.00002397,-0.00000590,0.00053401,0.00024026,-0
 .00038625,-0.00004138,-0.00002666,0.00009114,0.00269171,-0.00467198,-0
 .00206203,0.00003877,0.00017247,-0.00021488,-0.00142303,-0.00060634,-0
 .00112823,-0.02350712,-0.00801755,-0.01558589,-0.00034416,0.00067469,0
 .00082510,-0.00118044,0.00094067,0.00080414,0.00017683,0.00000478,0.00
 002554,0.00078357,0.00029809,-0.00008507,0.00000733,-0.00000274,0.0004
 1369,-0.00005333,-0.00011510,0.00001014,-0.00000749,0.00003372,-0.0000
 0040,0.00001429,-0.00001981,0.00001616,-0.05771075,-0.06766851,-0.0391
 4576,0.06361133,0.07332174,-0.00001609,0.00002752,0.00002339,0.0000096
 5,0.00000046,0.00000195,0.00000512,-0.00000006,-0.00000030,-0.00002004
 ,-0.00000054,0.00000165,0.00002809,-0.00002341,-0.00005047,-0.00000610
 ,-0.00000706,0.00001269,-0.00010205,0.00004343,0.00011875,0.00002696,-
 0.00000218,0.00000904,0.00004145,0.00000194,0.00001956,0.00038441,0.00
 040197,-0.00017549,-0.00006132,-0.00018491,0.00010904,0.00167872,-0.00
 292931,-0.00067615,0.00033514,0.00007419,0.00040335,-0.00085764,-0.000
 80994,-0.00037068,-0.01209227,-0.00306217,-0.00932008,0.00038776,0.000
 05130,0.00073452,-0.00136081,0.00048842,0.00024363,-0.00005175,-0.0000
 3195,-0.00007113,0.00090519,-0.00019305,-0.00004713,0.00022010,0.00020
 657,0.00031007,-0.00010459,-0.00001142,-0.00008079,0.00000564,0.000004
 55,0.00001624,-0.00000661,0.00000811,0.00000179,-0.10973810,-0.0394255
 9,-0.12236794,0.12132736,0.04614790,0.13069739,-0.00001147,0.00002478,
 0.00000143,0.00000691,0.00001354,0.00000552,-0.00000804,-0.00001051,-0
 .00000757,0.00000140,-0.00000515,-0.00000261,0.00001980,-0.00001915,0.
 00002488,0.00000737,0.00002453,-0.00001487,0.00005119,-0.00000839,-0.0
 0005772,-0.00000733,0.00000939,-0.00000576,-0.00002657,-0.00002720,-0.
 00003761,-0.00011730,0.00005851,0.00022044,0.00003890,0.00007597,-0.00
 008247,0.00031898,-0.00096353,0.00054141,0.00032318,0.00000844,-0.0000
 8289,-0.00003126,-0.00000443,-0.00002842,-0.00254858,0.00508237,-0.004
 56467,0.00039987,0.00108482,0.00094794,0.00018064,0.00039337,-0.001047
 42,0.00000783,0.00001397,0.00045256,-0.00002715,0.00008305,-0.00007599
 ,0.00003899,-0.00031502,0.00013543,-0.00008256,-0.00013775,0.00002029,
 0.00002582,0.00002643,-0.00001394,-0.00001485,-0.00003701,0.00012345,-
 0.05890921,0.03878432,-0.03571551,-0.00527663,0.01938702,-0.01676030,0
 .05910714,-0.00001970,0.00002410,0.00001736,0.00000880,0.00001439,0.00
 000499,-0.00000695,-0.00000826,-0.00001021,-0.00001031,-0.00000502,-0.
 00000152,0.00000964,-0.00003571,-0.00001388,0.00000961,0.00002230,-0.0
 0001568,0.00000056,-0.00001882,0.00000043,-0.00001440,0.00000030,-0.00
 000797,-0.00004859,-0.00003087,-0.00004400,-0.00027172,0.00001324,0.00
 001706,0.00016646,0.00010688,-0.00014150,0.00088901,0.00096477,0.00159
 949,-0.00070919,0.00021335,-0.00102061,-0.00000448,0.00053989,-0.00018
 571,0.00652894,-0.02365558,0.01949671,0.00119941,-0.00443341,-0.003755
 43,-0.00099706,0.00104158,0.00113872,0.00052444,0.00050871,-0.00088967
 ,0.00002709,0.00001526,-0.00009797,-0.00026585,0.00034845,-0.00023644,
 -0.00004029,-0.00016320,0.00004504,0.00001497,0.00003617,-0.00001206,-
 0.00000843,0.00000034,0.00005950,0.03870807,-0.17652878,0.12027755,-0.
 00136394,0.00735055,-0.00664712,-0.04477727,0.19621765,0.00002290,-0.0
 0003831,-0.00001899,-0.00001253,-0.00001425,-0.00000490,0.00000510,0.0
 0000877,0.00001215,0.00001787,0.00000605,-0.00000180,-0.00004697,0.000
 03886,-0.00000531,-0.00000786,-0.00002955,0.00001527,-0.00005454,0.000
 00588,0.00001366,0.00003650,0.00000101,0.00001416,0.00001469,0.0000161
 1,0.00003783,-0.00002088,0.00012502,-0.00014064,0.00001108,-0.00004668
 ,0.00005004,0.00049672,-0.00028921,0.00135943,0.00009260,0.00044099,0.
 00002494,0.00015503,0.00020948,0.00016964,0.00354638,-0.01156439,0.009
 93921,0.00082565,-0.00338914,-0.00049539,-0.00024417,-0.00041225,0.001
 29846,-0.00035216,0.00029315,0.00010849,0.00004238,0.00008167,-0.00011
 108,-0.00021459,0.00009948,0.00018342,0.00005842,0.00015691,-0.0000119
 1,-0.00000851,-0.00003135,0.00000361,-0.00004177,0.00005224,-0.0000528
 4,-0.03584256,0.12085351,-0.15790246,-0.00257053,0.01193669,-0.0117072
 9,0.03924538,-0.13166402,0.17044350,-0.00000277,0.00000548,-0.00000895
 ,0.00000153,0.00000060,0.00000316,-0.00000395,-0.00000057,-0.00000454,
 0.00000818,-0.00000173,0.00000007,0.00001823,-0.00001178,0.00004785,0.
 00000661,0.00000992,-0.00001730,0.00011581,0.00001770,-0.00014788,-0.0
 0002712,-0.00000230,-0.00000464,-0.00004022,0.00000196,-0.00002655,-0.
 00006621,-0.00054716,-0.00000005,0.00000874,-0.00019832,-0.00027963,0.
 00008204,-0.00012287,-0.00047186,-0.00001070,0.00001539,-0.00003654,0.
 00005358,0.00013629,0.00012060,-0.00528838,-0.00084277,0.00303087,0.00
 000637,0.00028822,-0.00020735,0.00047393,0.00219674,0.00031036,0.00002
 642,-0.00014182,0.00005249,0.00052163,-0.00006220,-0.00014742,-0.00019
 851,-0.00012177,0.00061696,-0.00009521,-0.00004585,-0.00002640,0.00002
 685,0.00000591,0.00000568,-0.00015983,0.00008259,-0.00003203,-0.205927
 14,-0.02257674,0.12498675,-0.01930968,-0.00289135,0.01582162,0.0064311
 3,0.00035001,-0.00515002,0.22330302,0.00002929,-0.00006995,-0.00002871
 ,-0.00002178,-0.00001366,-0.00000844,0.00000358,0.00000879,0.00000969,
 0.00003178,0.00000655,-0.00000283,-0.00013361,0.00004340,0.00000118,-0
 .00001603,-0.00002351,0.00001434,-0.00022450,-0.00003091,0.00016529,0.
 00008735,0.00004321,0.00003167,0.00008178,0.00001693,0.00006431,-0.000
 20052,-0.00028148,-0.00076463,-0.00020817,-0.00076564,0.00002837,0.000
 09144,0.00134953,0.00075947,-0.00014172,-0.00010069,-0.00001697,0.0001
 4897,0.00004762,0.00028441,0.02341540,0.00452499,-0.01766284,-0.000065
 11,0.00117288,0.00084126,0.00012002,-0.00523641,-0.00235479,-0.0000911
 1,0.00008419,-0.00030338,-0.00005300,-0.00009819,0.00024883,0.00142923
 ,0.00013326,-0.00132867,0.00018419,0.00010924,0.00008474,0.00001340,-0
 .00002084,-0.00000862,-0.00002402,0.00013349,-0.00005434,-0.02358983,-
 0.04987043,0.01922545,-0.00630407,-0.00204371,0.00591125,-0.01899420,-
 0.00275380,0.01334317,0.02444630,0.05377647,-0.00002054,0.00006151,-0.
 00001066,0.00001918,0.00002737,0.00001995,-0.00000100,-0.00001244,0.00
 000380,0.00001592,-0.00000845,-0.00000824,0.00005199,-0.00008534,0.000
 09177,-0.00001376,0.00000895,-0.00000149,-0.00020415,0.00003699,0.0000
 2637,0.00011842,0.00007864,0.00006298,0.00006242,-0.00003392,0.0000182
 3,-0.00026361,0.00038252,-0.00019211,0.00000664,-0.00033181,0.00016807
 ,0.00066699,0.00068000,0.00037076,-0.00012051,-0.00013616,-0.00009879,
 -0.00005997,-0.00002368,0.00010310,0.01120950,0.00314727,-0.01010312,-
 0.00034917,-0.00015111,0.00078096,-0.00027931,-0.00379818,-0.00071422,
 -0.00033682,-0.00000453,0.00042037,0.00019013,0.00011800,0.00015779,0.
 00111821,-0.00006124,-0.00037104,-0.00046299,-0.00010526,-0.00032196,0
 .00010813,0.00000536,0.00002869,-0.00002156,0.00009093,0.00015141,0.12
 402299,0.01818865,-0.14432598,-0.01406460,-0.00174981,0.01211018,0.016
 85157,0.00213113,-0.01325824,-0.13845074,-0.01848886,0.15468372,-0.000
 41295,-0.00091575,-0.00013311,0.00043542,-0.00012909,0.00068470,0.0004
 8154,-0.00043901,0.00111338,0.00002445,0.00004316,-0.00002025,0.001710
 57,0.00543196,-0.00600265,0.00090021,0.00116917,0.00031908,0.00055293,
 -0.00042302,-0.00121193,0.00018401,-0.00012765,0.00031981,-0.00039710,
 0.00037375,0.00067691,-0.00062615,0.00017595,0.00009510,0.00023222,-0.
 00017539,0.00016085,0.00003447,0.00004311,0.00033569,-0.00005868,0.000
 00893,-0.00011741,-0.00015674,0.00009354,0.00001269,0.00003735,-0.0000
 7341,0.00002592,-0.00000261,0.00000320,-0.00000789,0.00000074,0.000048
 63,-0.00001116,0.00001346,-0.00001210,0.00000781,-0.00001889,-0.000010
 94,-0.00000928,-0.00001599,0.00001841,0.00002280,-0.10645487,0.0249947
 9,-0.02058854,0.00372554,-0.01560469,0.02229616,-0.00902847,0.02333020
 ,-0.02925056,0.00009918,0.00003830,-0.00018398,-0.00009853,0.00000453,
 0.00001540,0.00001336,0.00001047,0.00002879,0.00002809,-0.00002030,0.0
 0014558,0.28846494,0.00119709,0.00185517,-0.00035272,0.00036440,0.0001
 8116,0.00047285,-0.00029707,-0.00078869,0.00021532,-0.00057462,-0.0002
 6660,0.00043623,0.01066394,-0.02651064,0.03894383,0.00012121,-0.009126
 28,-0.00184581,-0.00147419,0.00207942,0.00148818,-0.00008685,0.0003892
 5,-0.00040208,0.00022500,0.00047485,-0.00104707,-0.00003705,0.00002020
 ,0.00002279,-0.00004666,0.00000685,-0.00009335,0.00006814,0.00006658,0
 .00013878,-0.00008074,0.00005845,-0.00005265,0.00000437,0.00000470,-0.
 00002601,-0.00005807,-0.00013150,-0.00017035,-0.00000337,0.00005758,0.
 00001925,0.00004715,0.00005816,0.00009592,-0.00001756,0.00000128,-0.00
 003235,0.00006843,0.00001283,-0.00000202,-0.00003107,0.00001310,0.0000
 1157,0.04920322,-0.11092500,0.05090935,-0.00207015,0.00095546,0.004555
 73,0.00280609,0.00245318,0.00621782,0.00006379,-0.00002999,0.00007389,
 0.00001793,0.00005418,0.00001912,0.00003227,0.00004748,-0.00010073,-0.
 00000947,-0.00009473,0.00001970,-0.02567647,0.19075678,-0.00160169,-0.
 00097477,-0.00024182,0.00037081,-0.00041373,0.00071032,0.00102849,0.00
 012015,0.00141247,0.00018507,-0.00005417,0.00006890,0.00101765,0.01126
 760,-0.00153281,-0.00004530,0.00001674,0.00139769,0.00023458,-0.000137
 84,-0.00024098,-0.00026188,0.00028955,0.00021334,-0.00032071,0.0001449
 5,0.00033845,-0.00007981,0.00001026,-0.00007497,0.00011262,-0.00015419
 ,0.00018690,0.00005326,0.00025009,-0.00022212,-0.00005971,-0.00017306,
 0.00008694,-0.00007438,-0.00000228,0.00012212,-0.00001022,-0.00012593,
 0.00007874,0.00003130,-0.00000362,0.00002780,-0.00001683,0.00006228,-0
 .00002925,0.00000878,-0.00002696,0.00001415,-0.00001174,-0.00001230,0.
 00000422,-0.00001531,0.00001142,0.00002176,-0.05529823,0.06673283,-0.1
 1689686,-0.00187492,0.01450524,-0.02538112,-0.00719985,0.01635575,-0.0
 2576012,0.00011526,0.00009459,-0.00020930,-0.00007150,-0.00000822,0.00
 003422,0.00001632,-0.00002412,0.00002451,0.00002004,-0.00002390,0.0001
 3207,-0.04418214,-0.13827141,0.25133490,-0.00002345,0.00000830,0.00002
 281,0.00011621,-0.00015161,0.00002267,-0.00027894,-0.00004446,0.000091
 49,0.00021251,0.00019784,-0.00021467,0.00112275,0.00011512,-0.00039344
 ,0.00002572,-0.00000937,-0.00007786,-0.00001961,-0.00072285,-0.0002423
 7,0.00028630,-0.00020457,-0.00007165,-0.00005860,0.00027533,-0.0000960
 7,-0.00047385,0.00007985,0.00006350,0.00005923,0.00006541,-0.00009415,
 0.00017299,-0.00033940,0.00051969,0.00028487,0.00006080,-0.00057327,-0
 .00004280,0.00021847,-0.00014259,0.00017633,0.00005001,-0.00018342,-0.
 00013262,0.00007479,-0.00006870,0.00004932,0.00000535,0.00002648,0.000
 02519,0.00000915,-0.00004283,-0.00002450,-0.00000677,-0.00002767,-0.00
 001751,0.00004056,0.00002288,0.00046907,-0.00118828,0.00995273,0.00351
 844,-0.00196198,-0.00172608,0.00411513,0.00002310,-0.00118439,-0.00010
 231,-0.00040016,0.00026819,-0.00014020,0.00012539,-0.00009816,0.000267
 87,0.00029728,-0.00021761,0.00003324,-0.00005216,0.00013475,-0.1590332
 5,0.00032471,0.09768016,0.17938598,0.00004679,-0.00001293,0.00023305,0
 .00005939,-0.00004944,-0.00005951,-0.00022401,-0.00011203,-0.00002205,
 0.00010027,0.00010608,-0.00011531,-0.00084952,0.00010550,0.00082942,0.
 00020984,-0.00007456,-0.00030490,0.00070736,-0.00252488,-0.00167971,0.
 00007194,-0.00061758,0.00078526,0.00058624,-0.00296084,0.00130251,-0.0
 0039359,-0.00025895,-0.00026200,0.00008375,0.00006538,0.00003984,-0.00
 007999,-0.00035593,0.00031476,0.00001993,-0.00003737,-0.00004310,0.000
 08601,0.00004115,-0.00005974,-0.00004293,0.00007543,-0.00015618,-0.000
 03062,0.00001852,-0.00001777,0.00002929,-0.00003153,0.00008315,0.00002
 273,0.00002431,-0.00003522,0.00003503,0.00001507,-0.00001138,-0.000006
 25,0.00000342,-0.00000633,-0.02756115,0.00172503,0.01220909,0.00048637
 ,-0.00257837,0.00238512,0.00105208,0.00109453,-0.00163099,-0.00003874,
 -0.00013822,0.00020150,0.00004311,0.00004163,-0.00002445,0.00005776,0.
 00005820,-0.00004778,0.00000877,-0.00000678,-0.00010271,-0.01704201,-0
 .05853384,0.03282355,0.09459379,0.55146890,-0.00008673,0.00039756,-0.0
 0052773,0.00007426,0.00008521,0.00021245,0.00004433,0.00000866,0.00023
 424,-0.00015825,-0.00008712,-0.00000765,-0.00156099,-0.00105576,0.0028
 6631,-0.00000862,-0.00078142,0.00012755,0.00002957,0.00103786,-0.00000
 714,-0.00019871,0.00023025,0.00024705,0.00002948,-0.00027808,0.0004134
 8,0.00009157,0.00046847,0.00015415,0.00000598,-0.00004033,0.00002136,0
 .00016975,0.00022311,-0.00025872,-0.00022668,-0.00004168,0.00014590,-0
 .00007996,0.00002677,0.00005125,0.00004616,-0.00020633,0.00006230,0.00
 001507,0.00002863,0.00003184,-0.00000821,0.00008375,-0.00005680,-0.000
 02348,-0.00004299,0.00002066,-0.00002167,-0.00001609,0.00000678,-0.000
 02053,0.00001918,0.00002620,0.03537604,-0.00115661,-0.03411624,-0.0021
 6411,0.00764689,-0.00465103,0.00211878,-0.00226668,0.00497306,0.000041
 00,0.00001013,-0.00012903,-0.00011914,0.00003792,0.00000213,0.00010213
 ,0.00005137,-0.00011699,-0.00001296,-0.00007902,0.00024206,0.06293961,
 0.00973718,-0.07979122,-0.10390169,0.06014148,0.14151903,0.00003127,-0
 .00007589,0.00005398,-0.00001131,-0.00000602,-0.00001101,-0.00006088,0
 .00000173,-0.00000798,0.00002154,0.00002325,-0.00002920,-0.00063035,-0
 .00019717,0.00039645,0.00009018,-0.00001468,-0.00010610,0.00020876,0.0
 0034393,0.00038121,-0.00011172,0.00020328,-0.00022722,0.00012411,-0.00
 037330,-0.00044918,0.00035981,-0.00005729,0.00002291,-0.00012348,-0.00
 000660,-0.00001460,-0.00009448,0.00019183,-0.00027935,0.00009399,0.000
 02206,0.00015222,0.00002230,-0.00013378,0.00004759,-0.00001309,0.00007
 091,0.00020030,0.00004380,-0.00010427,-0.00000466,-0.00004861,-0.00001
 502,-0.00008010,-0.00001066,-0.00000049,0.00004560,-0.00001013,0.00000
 070,0.00002316,0.00003200,-0.00004874,-0.00002221,-0.00306884,0.000365
 65,-0.00010022,0.00015350,-0.00022804,-0.00000446,0.00047341,0.0003067
 3,-0.00056958,0.00001824,0.00031841,-0.00028008,0.00010275,-0.00013278
 ,0.00008320,-0.00017944,-0.00020658,0.00018520,-0.00001567,0.00005740,
 -0.00007368,-0.02063424,-0.03474439,0.01024987,-0.02997351,-0.05203165
 ,0.00750798,0.05321079,-0.00011086,0.00014139,0.00003539,0.00004164,0.
 00009366,0.00002619,-0.00000049,-0.00009006,-0.00003677,-0.00004940,-0
 .00004137,0.00000109,-0.00000871,0.00019680,-0.00044614,-0.00003936,0.
 00021554,0.00006948,0.00008095,-0.00007802,-0.00103886,0.00001830,-0.0
 0010177,0.00034072,0.00006395,-0.00037895,0.00066512,-0.00020555,0.000
 13993,0.00005900,0.00008080,-0.00002112,0.00004292,0.00006464,-0.00002
 186,0.00006510,0.00002078,-0.00008644,-0.00010102,-0.00004761,0.000053
 40,-0.00000709,0.00004674,-0.00006673,-0.00000034,-0.00001978,0.000022
 28,-0.00000261,0.00000334,0.00002558,-0.00000438,0.00001511,-0.0000043
 5,-0.00000096,-0.00001675,-0.00000385,-0.00001047,-0.00001095,0.000011
 89,0.00001426,0.00067281,-0.00241934,0.00146281,0.00001514,0.00044171,
 -0.00044667,-0.00049802,-0.00037170,0.00040811,-0.00002050,-0.00009956
 ,-0.00002267,-0.00009497,0.00005728,-0.00003354,0.00013904,0.00010985,
 -0.00004132,0.00001083,-0.00003982,0.00011650,0.00486170,0.00686061,-0
 .00227849,-0.09148365,-0.48654990,-0.07418234,0.08647081,0.48200494,0.
 00000169,-0.00016281,-0.00003050,-0.00005611,-0.00002013,-0.00005247,0
 .00008281,-0.00000718,-0.00004855,-0.00003906,-0.00001907,0.00005107,-
 0.00021269,0.00012626,-0.00079878,-0.00007445,0.00019406,0.00013105,0.
 00006861,-0.00002686,-0.00007083,0.00002266,-0.00012992,0.00005796,-0.
 00020274,0.00042103,0.00018614,-0.00003286,-0.00014601,-0.00002118,0.0
 0004708,0.00004922,0.00002540,0.00000071,-0.00002979,0.00004579,-0.000
 05926,0.00004560,0.00008057,0.00003459,-0.00005065,-0.00002426,-0.0000
 0760,0.00010562,0.00004085,0.00001702,-0.00004186,-0.00001937,-0.00000
 001,-0.00008375,0.00003804,-0.00000502,0.00003170,-0.00001162,0.000007
 99,0.00001571,-0.00000404,0.00002107,-0.00001818,-0.00003009,0.0056153
 0,0.00157146,-0.00004360,-0.00026777,0.00049005,-0.00078765,-0.0008529
 0,0.00008815,-0.00062951,0.00001055,0.00000606,-0.00002089,0.00008314,
 -0.00004627,0.00001788,-0.00019100,-0.00007145,0.00012950,0.00000841,0
 .00011255,-0.00016645,0.01251862,0.02901904,-0.00582893,0.00055126,-0.
 10676958,-0.03169529,-0.01709005,0.07534700,0.03947977\\0.00000040,-0.
 00000028,-0.00000249,0.00000041,-0.00000018,-0.00000319,0.00000052,0.0
 0000021,-0.00000242,-0.00000019,-0.00000076,-0.00000291,-0.00000022,-0
 .00000052,-0.00000188,-0.00000060,-0.00000107,-0.00000179,0.00000024,0
 .00000005,-0.00000131,0.00000052,0.00000022,-0.00000196,0.00000079,0.0
 0000059,-0.00000098,-0.00000018,0.00000008,-0.00000053,-0.00000053,-0.
 00000076,-0.00000056,0.00000040,0.00000064,0.00000066,0.00000074,0.000
 00080,0.00000057,0.00000077,0.00000091,0.00000003,-0.00000018,0.,0.000
 00146,-0.00000040,-0.00000024,0.00000097,0.00000039,0.00000093,0.00000
 197,0.00000064,0.00000125,0.00000254,0.00000004,0.00000056,0.00000275,
 0.00000073,0.00000110,0.00000166,-0.00000050,-0.00000096,-0.00000059,-
 0.00000094,-0.00000124,-0.00000103,-0.00000048,-0.00000079,-0.00000032
 ,-0.00000069,-0.00000039,0.00000201,-0.00000094,-0.00000056,0.00000261
 ,-0.00000041,0.00000010,0.00000220,-0.00000114,-0.00000077,0.00000156,
 0.00000006,-0.00000004,-0.00000050,0.00000043,0.00000060,0.00000061,0.
 00000032,0.00000052,0.00000086\\\@
 Job cpu time:  0 days 11 hours 31 minutes 42.7 seconds.
 File lengths (MBytes):  RWF=  73493 Int=      0 D2E=      0 Chk=     32 Scr=      1
 Normal termination of Gaussian 09 at Sat Feb  8 15:57:47 2014.
