 Entering Gaussian System, Link 0=g09
 Initial command:
 /usr/caen/gaussian-09revc/g09/l1.exe /scratch/avioli_flux/hetanjin/scratch/Gau-23278.inp -scrdir=/scratch/avioli_flux/hetanjin/scratch/
 Entering Link 1 = /usr/caen/gaussian-09revc/g09/l1.exe PID=     23279.
  
 Copyright (c) 1988,1990,1992,1993,1995,1998,2003,2009,2011,
            Gaussian, Inc.  All Rights Reserved.
  
 This is part of the Gaussian(R) 09 program.  It is based on
 the Gaussian(R) 03 system (copyright 2003, Gaussian, Inc.),
 the Gaussian(R) 98 system (copyright 1998, Gaussian, Inc.),
 the Gaussian(R) 94 system (copyright 1995, Gaussian, Inc.),
 the Gaussian 92(TM) system (copyright 1992, Gaussian, Inc.),
 the Gaussian 90(TM) system (copyright 1990, Gaussian, Inc.),
 the Gaussian 88(TM) system (copyright 1988, Gaussian, Inc.),
 the Gaussian 86(TM) system (copyright 1986, Carnegie Mellon
 University), and the Gaussian 82(TM) system (copyright 1983,
 Carnegie Mellon University). Gaussian is a federally registered
 trademark of Gaussian, Inc.
  
 This software contains proprietary and confidential information,
 including trade secrets, belonging to Gaussian, Inc.
  
 This software is provided under written license and may be
 used, copied, transmitted, or stored only in accord with that
 written license.
  
 The following legend is applicable only to US Government
 contracts under FAR:
  
                    RESTRICTED RIGHTS LEGEND
  
 Use, reproduction and disclosure by the US Government is
 subject to restrictions as set forth in subparagraphs (a)
 and (c) of the Commercial Computer Software - Restricted
 Rights clause in FAR 52.227-19.
  
 Gaussian, Inc.
 340 Quinnipiac St., Bldg. 40, Wallingford CT 06492
  
  
 ---------------------------------------------------------------
 Warning -- This program may not be used in any manner that
 competes with the business of Gaussian, Inc. or will provide
 assistance to any competitor of Gaussian, Inc.  The licensee
 of this program is prohibited from giving any competitor of
 Gaussian, Inc. access to this program.  By using this program,
 the user acknowledges that Gaussian, Inc. is engaged in the
 business of creating and licensing software in the field of
 computational chemistry and represents and warrants to the
 licensee that it is not a competitor of Gaussian, Inc. and that
 it will not use this program in any manner prohibited above.
 ---------------------------------------------------------------
  

 Cite this work as:
 Gaussian 09, Revision C.01,
 M. J. Frisch, G. W. Trucks, H. B. Schlegel, G. E. Scuseria, 
 M. A. Robb, J. R. Cheeseman, G. Scalmani, V. Barone, B. Mennucci, 
 G. A. Petersson, H. Nakatsuji, M. Caricato, X. Li, H. P. Hratchian, 
 A. F. Izmaylov, J. Bloino, G. Zheng, J. L. Sonnenberg, M. Hada, 
 M. Ehara, K. Toyota, R. Fukuda, J. Hasegawa, M. Ishida, T. Nakajima, 
 Y. Honda, O. Kitao, H. Nakai, T. Vreven, J. A. Montgomery, Jr., 
 J. E. Peralta, F. Ogliaro, M. Bearpark, J. J. Heyd, E. Brothers, 
 K. N. Kudin, V. N. Staroverov, T. Keith, R. Kobayashi, J. Normand, 
 K. Raghavachari, A. Rendell, J. C. Burant, S. S. Iyengar, J. Tomasi, 
 M. Cossi, N. Rega, J. M. Millam, M. Klene, J. E. Knox, J. B. Cross, 
 V. Bakken, C. Adamo, J. Jaramillo, R. Gomperts, R. E. Stratmann, 
 O. Yazyev, A. J. Austin, R. Cammi, C. Pomelli, J. W. Ochterski, 
 R. L. Martin, K. Morokuma, V. G. Zakrzewski, G. A. Voth, 
 P. Salvador, J. J. Dannenberg, S. Dapprich, A. D. Daniels, 
 O. Farkas, J. B. Foresman, J. V. Ortiz, J. Cioslowski, 
 and D. J. Fox, Gaussian, Inc., Wallingford CT, 2010.
 
 ******************************************
 Gaussian 09:  EM64L-G09RevC.01 23-Sep-2011
                 8-Feb-2014 
 ******************************************
 %mem=30GB
 %nprocshared=8
 Will use up to    8 processors via shared memory.
 %chk=C9H18_1_26.chk
 -------------------------------------------------
 #p B3LYP/6-311++G(d,p) guess=mix stable=(opt,xqc)
 -------------------------------------------------
 1/38=1/1;
 2/12=2,17=6,18=5,40=1/2;
 3/5=4,6=6,7=1111,11=2,16=1,25=1,30=1,74=-5/1,2,3;
 4/13=-1/1;
 5/5=2,38=5/2;
 6/7=2,8=2,9=2,10=2,28=1/1;
 8/6=1,10=90,11=11/1;
 9/8=-3,42=1,46=1/14;
 5/5=2,8=3,13=1,17=40,38=5/2,8(-2);
 6/7=2,8=2,9=2,10=2,28=1/1;
 99/5=1,9=1/99;
 Leave Link    1 at Sat Feb  8 14:51:49 2014, MaxMem= 4026531840 cpu:       0.6
 (Enter /usr/caen/gaussian-09revc/g09/l101.exe)
 ---------------------------------------
 C9H18_1_26 using cbs-qb3 to cal. energy
 ---------------------------------------
 Charge =  0 Multiplicity = 1
 Symbolic Z-Matrix:
 C                     3.89228  -0.76223   0.26507 
 H                     3.92471  -1.63989  -0.39092 
 H                     3.8601   -1.1404    1.29341 
 H                     4.82206  -0.20527   0.13521 
 C                     2.68371   0.09034  -0.0341 
 C                     1.35656  -0.61902   0.13013 
 H                     1.36932  -1.51234  -0.51094 
 H                     1.30925  -1.01293   1.15569 
 C                     0.08769   0.18766  -0.15636 
 H                     0.11331   0.55494  -1.18933 
 H                     0.0718    1.07235   0.4879 
 C                    -1.18952  -0.63622   0.05269 
 H                    -1.24423  -0.96703   1.0992 
 H                    -1.12031  -1.55079  -0.55001 
 C                    -2.50259   0.08398  -0.30893 
 H                    -2.4109    0.43847  -1.34507 
 C                    -3.68563  -0.89274  -0.25241 
 H                    -3.82103  -1.28345   0.76232 
 H                    -4.61914  -0.40328  -0.54569 
 H                    -3.531    -1.74617  -0.91939 
 C                    -2.76969   1.30446   0.58432 
 H                    -3.71332   1.78722   0.31344 
 H                    -2.84001   1.0071    1.63695 
 H                    -1.98093   2.05606   0.5023 
 C                     2.80658   1.36498  -0.41195 
 H                     1.95093   1.99172  -0.63172 
 H                     3.78305   1.82645  -0.514 
 
 NAtoms=     27 NQM=        0 NQMF=       0 NMMI=     27 NMMIF=      0
                NMic=       0 NMicF=      0.
                    Isotopes and Nuclear Properties:
 (Nuclear quadrupole moments (NQMom) in fm**2, nuclear magnetic moments (NMagM)
  in nuclear magnetons)

  Atom         1           2           3           4           5           6           7           8           9          10
 IAtWgt=          12           1           1           1          12          12           1           1          12           1
 AtmWgt=  12.0000000   1.0078250   1.0078250   1.0078250  12.0000000  12.0000000   1.0078250   1.0078250  12.0000000   1.0078250
 NucSpn=           0           1           1           1           0           0           1           1           0           1
 AtZEff=   0.0000000   0.0000000   0.0000000   0.0000000   0.0000000   0.0000000   0.0000000   0.0000000   0.0000000   0.0000000
 NQMom=    0.0000000   0.0000000   0.0000000   0.0000000   0.0000000   0.0000000   0.0000000   0.0000000   0.0000000   0.0000000
 NMagM=    0.0000000   2.7928460   2.7928460   2.7928460   0.0000000   0.0000000   2.7928460   2.7928460   0.0000000   2.7928460

  Atom        11          12          13          14          15          16          17          18          19          20
 IAtWgt=           1          12           1           1          12           1          12           1           1           1
 AtmWgt=   1.0078250  12.0000000   1.0078250   1.0078250  12.0000000   1.0078250  12.0000000   1.0078250   1.0078250   1.0078250
 NucSpn=           1           0           1           1           0           1           0           1           1           1
 AtZEff=   0.0000000   0.0000000   0.0000000   0.0000000   0.0000000   0.0000000   0.0000000   0.0000000   0.0000000   0.0000000
 NQMom=    0.0000000   0.0000000   0.0000000   0.0000000   0.0000000   0.0000000   0.0000000   0.0000000   0.0000000   0.0000000
 NMagM=    2.7928460   0.0000000   2.7928460   2.7928460   0.0000000   2.7928460   0.0000000   2.7928460   2.7928460   2.7928460

  Atom        21          22          23          24          25          26          27
 IAtWgt=          12           1           1           1          12           1           1
 AtmWgt=  12.0000000   1.0078250   1.0078250   1.0078250  12.0000000   1.0078250   1.0078250
 NucSpn=           0           1           1           1           0           1           1
 AtZEff=   0.0000000   0.0000000   0.0000000   0.0000000   0.0000000   0.0000000   0.0000000
 NQMom=    0.0000000   0.0000000   0.0000000   0.0000000   0.0000000   0.0000000   0.0000000
 NMagM=    0.0000000   2.7928460   2.7928460   2.7928460   0.0000000   2.7928460   2.7928460
 Leave Link  101 at Sat Feb  8 14:51:50 2014, MaxMem= 4026531840 cpu:       0.5
 (Enter /usr/caen/gaussian-09revc/g09/l202.exe)
                          Input orientation:                          
 ---------------------------------------------------------------------
 Center     Atomic      Atomic             Coordinates (Angstroms)
 Number     Number       Type             X           Y           Z
 ---------------------------------------------------------------------
      1          6           0        3.892283   -0.762234    0.265068
      2          1           0        3.924713   -1.639894   -0.390920
      3          1           0        3.860101   -1.140400    1.293407
      4          1           0        4.822058   -0.205272    0.135209
      5          6           0        2.683708    0.090339   -0.034103
      6          6           0        1.356561   -0.619021    0.130127
      7          1           0        1.369323   -1.512342   -0.510944
      8          1           0        1.309251   -1.012930    1.155688
      9          6           0        0.087685    0.187660   -0.156362
     10          1           0        0.113308    0.554939   -1.189329
     11          1           0        0.071798    1.072348    0.487897
     12          6           0       -1.189518   -0.636222    0.052692
     13          1           0       -1.244225   -0.967025    1.099197
     14          1           0       -1.120305   -1.550785   -0.550012
     15          6           0       -2.502586    0.083977   -0.308930
     16          1           0       -2.410900    0.438469   -1.345065
     17          6           0       -3.685631   -0.892737   -0.252413
     18          1           0       -3.821030   -1.283450    0.762322
     19          1           0       -4.619143   -0.403283   -0.545688
     20          1           0       -3.531003   -1.746167   -0.919392
     21          6           0       -2.769690    1.304461    0.584318
     22          1           0       -3.713316    1.787218    0.313440
     23          1           0       -2.840013    1.007105    1.636947
     24          1           0       -1.980930    2.056060    0.502302
     25          6           0        2.806577    1.364984   -0.411954
     26          1           0        1.950929    1.991718   -0.631717
     27          1           0        3.783052    1.826447   -0.514002
 ---------------------------------------------------------------------
                    Distance matrix (angstroms):
                    1          2          3          4          5
     1  C    0.000000
     2  H    1.096202   0.000000
     3  H    1.096142   1.758018   0.000000
     4  H    1.091582   1.772055   1.772357   0.000000
     5  C    1.508986   2.158962   2.158912   2.165316   0.000000
     6  C    2.543345   2.812308   2.809407   3.490112   1.513764
     7  H    2.744118   2.561385   3.098064   3.747976   2.126869
     8  H    2.743740   3.102535   2.557743   3.746132   2.126485
     9  C    3.943966   4.256496   4.254021   4.759590   2.600722
    10  H    4.258036   4.470073   4.803812   4.950217   2.856109
    11  H    4.243990   4.793071   4.460531   4.931701   2.838820
    12  C    5.087798   5.230632   5.224196   6.027568   3.941739
    13  H    5.207823   5.421358   5.110961   6.189453   4.222682
    14  H    5.139281   5.048312   5.326448   6.131200   4.174921
    15  C    6.476102   6.654970   6.674606   7.343796   5.193574
    16  H    6.615462   6.735724   6.984255   7.410890   5.272082
    17  C    7.596683   7.648187   7.706424   8.544216   6.448455
    18  H    7.746878   7.839232   7.700798   8.732623   6.695760
    19  H    8.557485   8.634271   8.707651   9.467793   7.337371
    20  H    7.581309   7.475177   7.738983   8.559215   6.540575
    21  C    6.982480   7.378031   7.101710   7.753427   5.621040
    22  H    8.021669   8.401232   8.178504   8.766664   6.627375
    23  H    7.094817   7.541907   7.044241   7.901418   5.843318
    24  H    6.518719   7.023855   6.705285   7.178372   5.090249
    25  C    2.482372   3.206238   3.208601   2.612902   1.335136
    26  H    3.486736   4.140340   4.142608   3.695717   2.123523
    27  H    2.705578   3.471417   3.474888   2.372528   2.110197
                    6          7          8          9         10
     6  C    0.000000
     7  H    1.099617   0.000000
     8  H    1.099626   1.740886   0.000000
     9  C    1.530639   2.158317   2.157572   0.000000
    10  H    2.159820   2.512256   3.063919   1.096618   0.000000
    11  H    2.153914   3.059718   2.515078   1.094530   1.755711
    12  C    2.547314   2.762777   2.757237   1.534188   2.158434
    13  H    2.797193   3.117781   2.554513   2.164188   3.065391
    14  H    2.732332   2.490231   3.016860   2.153228   2.522816
    15  C    3.947150   4.192937   4.228287   2.596831   2.799966
    16  H    4.181894   4.334917   4.711671   2.778281   2.531688
    17  C    5.064085   5.099344   5.190958   3.926117   4.171992
    18  H    5.258192   5.349146   5.152446   4.276236   4.761054
    19  H    6.017666   6.090398   6.197758   4.759729   4.871197
    20  H    5.124474   4.922875   5.317109   4.173345   4.318444
    21  C    4.575152   5.124979   4.725942   3.156017   3.466884
    22  H    5.614913   6.115548   5.811746   4.150531   4.291838
    23  H    4.746159   5.355330   4.639886   3.529711   4.112711
    24  H    4.293416   4.998435   4.546527   2.864249   3.082339
    25  C    2.516480   3.217841   3.217757   2.973852   2.917907
    26  H    2.783817   3.554052   3.554501   2.636715   2.398357
    27  H    3.504722   4.119904   4.119420   4.058234   3.942058
                   11         12         13         14         15
    11  H    0.000000
    12  C    2.167841   0.000000
    13  H    2.502928   1.098907   0.000000
    14  H    3.062547   1.097483   1.753859   0.000000
    15  C    2.870412   1.540651   2.161226   2.154360   0.000000
    16  H    3.150451   2.144868   3.051387   2.500975   1.098930
    17  C    4.304404   2.527740   2.791564   2.665050   1.535174
    18  H    4.558421   2.801309   2.617925   3.014565   2.180764
    19  H    5.025009   3.489219   3.796515   3.682207   2.184786
    20  H    4.785882   2.767576   3.148193   2.446647   2.186260
    21  C    2.852583   2.558480   2.784204   3.487063   1.535844
    22  H    3.855977   3.508648   3.781492   4.314107   2.180422
    23  H    3.131009   2.816828   2.594784   3.779284   2.180014
    24  H    2.276310   2.841982   3.168290   3.854526   2.195298
    25  C    2.893853   4.493272   4.912315   4.892972   5.462491
    26  H    2.372743   4.151734   4.686068   4.689188   4.855663
    27  H    3.917381   5.577843   5.973224   5.953982   6.525910
                   16         17         18         19         20
    16  H    0.000000
    17  C    2.142647   0.000000
    18  H    3.065053   1.095754   0.000000
    19  H    2.494772   1.094084   1.767079   0.000000
    20  H    2.491679   1.094127   1.768159   1.768344   0.000000
    21  C    2.145039   2.523241   2.798979   2.759308   3.485265
    22  H    2.503208   2.739181   3.105173   2.521293   3.746722
    23  H    3.065922   2.809653   2.640834   3.149348   3.820058
    24  H    2.492838   3.488697   3.821767   3.755905   4.345212
    25  C    5.380631   6.875429   7.233139   7.634525   7.078254
    26  H    4.684763   6.343088   6.781267   6.993517   6.641244
    27  H    6.401733   7.952586   8.313996   8.693077   8.150050
                   21         22         23         24         25
    21  C    0.000000
    22  H    1.094011   0.000000
    23  H    1.096081   1.767174   0.000000
    24  H    1.092598   1.763266   1.767979   0.000000
    25  C    5.664890   6.573696   6.017479   4.922771   0.000000
    26  H    4.922937   5.746200   5.391607   4.092634   1.083155
    27  H    6.664623   7.541998   7.011626   5.857396   1.084834
                   26         27
    26  H    0.000000
    27  H    1.843325   0.000000
 Stoichiometry    C9H18
 Framework group  C1[X(C9H18)]
 Deg. of freedom    75
 Full point group                 C1      NOp   1
 Largest Abelian subgroup         C1      NOp   1
 Largest concise Abelian subgroup C1      NOp   1
                         Standard orientation:                         
 ---------------------------------------------------------------------
 Center     Atomic      Atomic             Coordinates (Angstroms)
 Number     Number       Type             X           Y           Z
 ---------------------------------------------------------------------
      1          6           0        3.892283   -0.762234    0.265068
      2          1           0        3.924713   -1.639894   -0.390920
      3          1           0        3.860101   -1.140400    1.293407
      4          1           0        4.822058   -0.205272    0.135209
      5          6           0        2.683708    0.090339   -0.034103
      6          6           0        1.356561   -0.619021    0.130127
      7          1           0        1.369323   -1.512342   -0.510944
      8          1           0        1.309251   -1.012930    1.155688
      9          6           0        0.087685    0.187660   -0.156362
     10          1           0        0.113308    0.554939   -1.189329
     11          1           0        0.071798    1.072348    0.487897
     12          6           0       -1.189518   -0.636222    0.052692
     13          1           0       -1.244225   -0.967025    1.099197
     14          1           0       -1.120305   -1.550785   -0.550012
     15          6           0       -2.502586    0.083977   -0.308930
     16          1           0       -2.410900    0.438469   -1.345065
     17          6           0       -3.685631   -0.892737   -0.252413
     18          1           0       -3.821030   -1.283450    0.762322
     19          1           0       -4.619143   -0.403283   -0.545688
     20          1           0       -3.531003   -1.746167   -0.919392
     21          6           0       -2.769690    1.304461    0.584318
     22          1           0       -3.713316    1.787218    0.313440
     23          1           0       -2.840013    1.007105    1.636947
     24          1           0       -1.980930    2.056060    0.502302
     25          6           0        2.806577    1.364984   -0.411954
     26          1           0        1.950929    1.991718   -0.631717
     27          1           0        3.783052    1.826447   -0.514002
 ---------------------------------------------------------------------
 Rotational constants (GHZ):      4.0136923      0.5525196      0.5084972
 Leave Link  202 at Sat Feb  8 14:51:50 2014, MaxMem= 4026531840 cpu:       0.3
 (Enter /usr/caen/gaussian-09revc/g09/l301.exe)
 Standard basis: 6-311++G(d,p) (5D, 7F)
 Ernie: Thresh=  0.10000D-02 Tol=  0.10000D-05 Strict=F.
 There are   324 symmetry adapted basis functions of A   symmetry.
 Integral buffers will be    131072 words long.
 Raffenetti 2 integral format.
 Two-electron integral symmetry is turned on.
   324 basis functions,   486 primitive gaussians,   333 cartesian basis functions
    36 alpha electrons       36 beta electrons
       nuclear repulsion energy       448.2478186824 Hartrees.
 IExCor=  402 DFT=T Ex+Corr=B3LYP ExCW=0 ScaHFX=  0.200000
 ScaDFX=  0.800000  0.720000  1.000000  0.810000 ScalE2=  1.000000  1.000000
 IRadAn=      0 IRanWt=     -1 IRanGd=            0 ICorTp=0
 NAtoms=   27 NActive=   27 NUniq=   27 SFac= 1.00D+00 NAtFMM=   60 NAOKFM=F Big=F
 Leave Link  301 at Sat Feb  8 14:51:50 2014, MaxMem= 4026531840 cpu:       0.7
 (Enter /usr/caen/gaussian-09revc/g09/l302.exe)
 NPDir=0 NMtPBC=     1 NCelOv=     1 NCel=       1 NClECP=     1 NCelD=      1
         NCelK=      1 NCelE2=     1 NClLst=     1 CellRange=     0.0.
 One-electron integrals computed using PRISM.
 NBasis=   324 RedAO= T  NBF=   324
 NBsUse=   324 1.00D-06 NBFU=   324
 Precomputing XC quadrature grid using
 IXCGrd= 2 IRadAn=           0 IRanWt=          -1 IRanGd=           0 AccXCQ= 0.00D+00.
 NRdTot=    1762 NPtTot=      224840 NUsed=      237538 NTot=      237570
 NSgBfM=   333   333   333   333   333 NAtAll=    27    27.
 Leave Link  302 at Sat Feb  8 14:51:53 2014, MaxMem= 4026531840 cpu:      12.4
 (Enter /usr/caen/gaussian-09revc/g09/l303.exe)
 DipDrv:  MaxL=1.
 Leave Link  303 at Sat Feb  8 14:51:53 2014, MaxMem= 4026531840 cpu:       2.1
 (Enter /usr/caen/gaussian-09revc/g09/l401.exe)
 Harris functional with IExCor=  402 diagonalized for initial guess.
 ExpMin= 3.60D-02 ExpMax= 4.56D+03 ExpMxC= 6.82D+02 IAcc=3 IRadAn=         5 AccDes= 0.00D+00
 HarFok:  IExCor=  402 AccDes= 0.00D+00 IRadAn=         5 IDoV= 1
 ScaDFX=  1.000000  1.000000  1.000000  1.000000
 FoFCou: FMM=F IPFlag=           0 FMFlag=      100000 FMFlg1=           0
         NFxFlg=           0 DoJE=T BraDBF=F KetDBF=T FulRan=T
         Omega=  0.000000  0.000000  1.000000  0.000000  0.000000 ICntrl=     500 IOpCl=  0
         NMat0=    1 NMatS0=    1 NMatT0=    0 NMatD0=    1 NMtDS0=    0 NMtDT0=    0
         I1Cent=           4 NGrid=           0.
 Petite list used in FoFCou.
 Harris En= -353.995103626619    
 Mixing orbitals, IMix= 1 IMixAn=  0 NRI=1 NE=   36 Coef=  7.07106781D-01  7.07106781D-01
 Initial guess orbital symmetries:
       Occupied  (A) (A) (A) (A) (A) (A) (A) (A) (A) (A) (A) (A)
                 (A) (A) (A) (A) (A) (A) (A) (A) (A) (A) (A) (A)
                 (A) (A) (A) (A) (A) (A) (A) (A) (A) (A) (A) (A)
       Virtual   (A) (A) (A) (A) (A) (A) (A) (A) (A) (A) (A) (A)
                 (A) (A) (A) (A) (A) (A) (A) (A) (A) (A) (A) (A)
                 (A) (A) (A) (A) (A) (A) (A) (A) (A) (A) (A) (A)
                 (A) (A) (A) (A) (A) (A) (A) (A) (A) (A) (A) (A)
                 (A) (A) (A) (A) (A) (A) (A) (A) (A) (A) (A) (A)
                 (A) (A) (A) (A) (A) (A) (A) (A) (A) (A) (A) (A)
                 (A) (A) (A) (A) (A) (A) (A) (A) (A) (A) (A) (A)
                 (A) (A) (A) (A) (A) (A) (A) (A) (A) (A) (A) (A)
                 (A) (A) (A) (A) (A) (A) (A) (A) (A) (A) (A) (A)
                 (A) (A) (A) (A) (A) (A) (A) (A) (A) (A) (A) (A)
                 (A) (A) (A) (A) (A) (A) (A) (A) (A) (A) (A) (A)
                 (A) (A) (A) (A) (A) (A) (A) (A) (A) (A) (A) (A)
                 (A) (A) (A) (A) (A) (A) (A) (A) (A) (A) (A) (A)
                 (A) (A) (A) (A) (A) (A) (A) (A) (A) (A) (A) (A)
                 (A) (A) (A) (A) (A) (A) (A) (A) (A) (A) (A) (A)
                 (A) (A) (A) (A) (A) (A) (A) (A) (A) (A) (A) (A)
                 (A) (A) (A) (A) (A) (A) (A) (A) (A) (A) (A) (A)
                 (A) (A) (A) (A) (A) (A) (A) (A) (A) (A) (A) (A)
                 (A) (A) (A) (A) (A) (A) (A) (A) (A) (A) (A) (A)
                 (A) (A) (A) (A) (A) (A) (A) (A) (A) (A) (A) (A)
                 (A) (A) (A) (A) (A) (A) (A) (A) (A) (A) (A) (A)
                 (A) (A) (A) (A) (A) (A) (A) (A) (A) (A) (A) (A)
                 (A) (A) (A) (A) (A) (A) (A) (A) (A) (A) (A) (A)
                 (A) (A) (A) (A) (A) (A) (A) (A) (A) (A) (A) (A)
 The electronic state of the initial guess is 1-A.
 Leave Link  401 at Sat Feb  8 14:52:00 2014, MaxMem= 4026531840 cpu:      38.0
 (Enter /usr/caen/gaussian-09revc/g09/l502.exe)
 Closed shell SCF:
 Requested convergence on RMS density matrix=1.00D-08 within 128 cycles.
 Requested convergence on MAX density matrix=1.00D-06.
 Requested convergence on             energy=1.00D-06.
 No special actions if energy rises.
 Using DIIS extrapolation, IDIIS=  1040.
 Integral symmetry usage will be decided dynamically.
       237282 words used for storage of precomputed grid.
 Keep R1 ints in memory in canonical form, NReq=1565542444.
 IEnd=      593279 IEndB=      593279 NGot=  4026531840 MDV=  2479746930
 LenX=  2479746930 LenY=  2479635600
 Symmetry not used in FoFDir.
 MinBra= 0 MaxBra= 2 Meth= 1.
 IRaf=       0 NMat=   1 IRICut=       1 DoRegI=T DoRafI=F ISym2E= 0 JSym2E=0.

 Cycle   1  Pass 1  IDiag  1:
 E= -353.141132865454    
 DIIS: error= 3.25D-02 at cycle   1 NSaved=   1.
 NSaved= 1 IEnMin= 1 EnMin= -353.141132865454     IErMin= 1 ErrMin= 3.25D-02
 ErrMax= 3.25D-02 EMaxC= 1.00D-01 BMatC= 4.68D-01 BMatP= 4.68D-01
 IDIUse=3 WtCom= 6.75D-01 WtEn= 3.25D-01
 Coeff-Com:  0.100D+01
 Coeff-En:   0.100D+01
 Coeff:      0.100D+01
 Gap=    -0.273 Goal=   None    Shift=    0.000
 GapD=   -0.273 DampG=0.250 DampE=0.500 DampFc=0.2500 IDamp=-1.
 Damping current iteration by 2.50D-01
 RMSDP=1.89D-02 MaxDP=1.34D+00              OVMax= 6.44D-01

 Cycle   2  Pass 1  IDiag  1:
 E= -353.399726233090     Delta-E=       -0.258593367636 Rises=F Damp=T
 DIIS: error= 1.89D-02 at cycle   2 NSaved=   2.
 NSaved= 2 IEnMin= 2 EnMin= -353.399726233090     IErMin= 2 ErrMin= 1.89D-02
 ErrMax= 1.89D-02 EMaxC= 1.00D-01 BMatC= 9.19D-02 BMatP= 4.68D-01
 IDIUse=3 WtCom= 8.11D-01 WtEn= 1.89D-01
 Coeff-Com: -0.523D+00 0.152D+01
 Coeff-En:   0.000D+00 0.100D+01
 Coeff:     -0.424D+00 0.142D+01
 Gap=     0.293 Goal=   None    Shift=    0.000
 RMSDP=9.21D-03 MaxDP=9.54D-01 DE=-2.59D-01 OVMax= 4.17D-01

 Cycle   3  Pass 1  IDiag  1:
 E= -353.881037043556     Delta-E=       -0.481310810467 Rises=F Damp=F
 DIIS: error= 7.95D-03 at cycle   3 NSaved=   3.
 NSaved= 3 IEnMin= 3 EnMin= -353.881037043556     IErMin= 3 ErrMin= 7.95D-03
 ErrMax= 7.95D-03 EMaxC= 1.00D-01 BMatC= 1.31D-02 BMatP= 9.19D-02
 IDIUse=3 WtCom= 9.20D-01 WtEn= 7.95D-02
 Coeff-Com:  0.788D-02 0.233D+00 0.759D+00
 Coeff-En:   0.000D+00 0.000D+00 0.100D+01
 Coeff:      0.725D-02 0.214D+00 0.779D+00
 Gap=     0.245 Goal=   None    Shift=    0.000
 RMSDP=1.95D-03 MaxDP=1.80D-01 DE=-4.81D-01 OVMax= 5.40D-02

 Cycle   4  Pass 1  IDiag  1:
 E= -353.887473085387     Delta-E=       -0.006436041831 Rises=F Damp=F
 DIIS: error= 5.61D-03 at cycle   4 NSaved=   4.
 NSaved= 4 IEnMin= 4 EnMin= -353.887473085387     IErMin= 4 ErrMin= 5.61D-03
 ErrMax= 5.61D-03 EMaxC= 1.00D-01 BMatC= 7.22D-03 BMatP= 1.31D-02
 IDIUse=3 WtCom= 9.44D-01 WtEn= 5.61D-02
 Coeff-Com:  0.113D+00-0.108D+00 0.484D+00 0.511D+00
 Coeff-En:   0.000D+00 0.000D+00 0.291D+00 0.709D+00
 Coeff:      0.106D+00-0.102D+00 0.474D+00 0.522D+00
 Gap=     0.239 Goal=   None    Shift=    0.000
 RMSDP=1.04D-03 MaxDP=1.25D-01 DE=-6.44D-03 OVMax= 3.30D-02

 Cycle   5  Pass 1  IDiag  1:
 E= -353.894541476225     Delta-E=       -0.007068390838 Rises=F Damp=F
 DIIS: error= 4.03D-04 at cycle   5 NSaved=   5.
 NSaved= 5 IEnMin= 5 EnMin= -353.894541476225     IErMin= 5 ErrMin= 4.03D-04
 ErrMax= 4.03D-04 EMaxC= 1.00D-01 BMatC= 1.11D-04 BMatP= 7.22D-03
 IDIUse=3 WtCom= 9.96D-01 WtEn= 4.03D-03
 Coeff-Com:  0.369D-01-0.455D-01 0.875D-01 0.993D-01 0.822D+00
 Coeff-En:   0.000D+00 0.000D+00 0.000D+00 0.000D+00 0.100D+01
 Coeff:      0.367D-01-0.453D-01 0.872D-01 0.989D-01 0.823D+00
 Gap=     0.240 Goal=   None    Shift=    0.000
 RMSDP=2.60D-04 MaxDP=2.94D-02 DE=-7.07D-03 OVMax= 4.56D-03

 Cycle   6  Pass 1  IDiag  1:
 E= -353.894605734158     Delta-E=       -0.000064257933 Rises=F Damp=F
 DIIS: error= 4.93D-04 at cycle   6 NSaved=   6.
 NSaved= 6 IEnMin= 6 EnMin= -353.894605734158     IErMin= 5 ErrMin= 4.03D-04
 ErrMax= 4.93D-04 EMaxC= 1.00D-01 BMatC= 5.85D-05 BMatP= 1.11D-04
 IDIUse=3 WtCom= 9.96D-01 WtEn= 4.03D-03
 Coeff-Com:  0.133D-01-0.196D-01 0.730D-02-0.120D-01 0.410D+00 0.601D+00
 Coeff-En:   0.000D+00 0.000D+00 0.000D+00 0.000D+00 0.212D+00 0.788D+00
 Coeff:      0.132D-01-0.195D-01 0.727D-02-0.120D-01 0.410D+00 0.601D+00
 Gap=     0.240 Goal=   None    Shift=    0.000
 RMSDP=7.39D-05 MaxDP=7.80D-03 DE=-6.43D-05 OVMax= 2.17D-03

 Cycle   7  Pass 1  IDiag  1:
 E= -353.894658935389     Delta-E=       -0.000053201231 Rises=F Damp=F
 DIIS: error= 6.95D-05 at cycle   7 NSaved=   7.
 NSaved= 7 IEnMin= 7 EnMin= -353.894658935389     IErMin= 7 ErrMin= 6.95D-05
 ErrMax= 6.95D-05 EMaxC= 1.00D-01 BMatC= 2.75D-06 BMatP= 5.85D-05
 IDIUse=1 WtCom= 1.00D+00 WtEn= 0.00D+00
 Coeff-Com:  0.146D-02-0.210D-02-0.324D-02-0.209D-01 0.593D-01 0.218D+00
 Coeff-Com:  0.747D+00
 Coeff:      0.146D-02-0.210D-02-0.324D-02-0.209D-01 0.593D-01 0.218D+00
 Coeff:      0.747D+00
 Gap=     0.240 Goal=   None    Shift=    0.000
 RMSDP=1.57D-05 MaxDP=9.54D-04 DE=-5.32D-05 OVMax= 2.86D-04

 Cycle   8  Pass 1  IDiag  1:
 E= -353.894661391755     Delta-E=       -0.000002456366 Rises=F Damp=F
 DIIS: error= 1.71D-05 at cycle   8 NSaved=   8.
 NSaved= 8 IEnMin= 8 EnMin= -353.894661391755     IErMin= 8 ErrMin= 1.71D-05
 ErrMax= 1.71D-05 EMaxC= 1.00D-01 BMatC= 1.29D-07 BMatP= 2.75D-06
 IDIUse=1 WtCom= 1.00D+00 WtEn= 0.00D+00
 Coeff-Com:  0.324D-03-0.341D-03-0.810D-03-0.794D-02 0.964D-02 0.571D-01
 Coeff-Com:  0.282D+00 0.660D+00
 Coeff:      0.324D-03-0.341D-03-0.810D-03-0.794D-02 0.964D-02 0.571D-01
 Coeff:      0.282D+00 0.660D+00
 Gap=     0.240 Goal=   None    Shift=    0.000
 RMSDP=4.97D-06 MaxDP=2.91D-04 DE=-2.46D-06 OVMax= 7.45D-05

 Cycle   9  Pass 1  IDiag  1:
 E= -353.894661510779     Delta-E=       -0.000000119024 Rises=F Damp=F
 DIIS: error= 8.07D-06 at cycle   9 NSaved=   9.
 NSaved= 9 IEnMin= 9 EnMin= -353.894661510779     IErMin= 9 ErrMin= 8.07D-06
 ErrMax= 8.07D-06 EMaxC= 1.00D-01 BMatC= 1.52D-08 BMatP= 1.29D-07
 IDIUse=1 WtCom= 1.00D+00 WtEn= 0.00D+00
 Coeff-Com:  0.648D-04-0.806D-04-0.174D-03-0.203D-02-0.116D-02 0.422D-02
 Coeff-Com:  0.559D-01 0.275D+00 0.669D+00
 Coeff:      0.648D-04-0.806D-04-0.174D-03-0.203D-02-0.116D-02 0.422D-02
 Coeff:      0.559D-01 0.275D+00 0.669D+00
 Gap=     0.240 Goal=   None    Shift=    0.000
 RMSDP=1.18D-06 MaxDP=7.28D-05 DE=-1.19D-07 OVMax= 4.87D-05

 Cycle  10  Pass 1  IDiag  1:
 E= -353.894661525499     Delta-E=       -0.000000014720 Rises=F Damp=F
 DIIS: error= 1.30D-06 at cycle  10 NSaved=  10.
 NSaved=10 IEnMin=10 EnMin= -353.894661525499     IErMin=10 ErrMin= 1.30D-06
 ErrMax= 1.30D-06 EMaxC= 1.00D-01 BMatC= 8.80D-10 BMatP= 1.52D-08
 IDIUse=1 WtCom= 1.00D+00 WtEn= 0.00D+00
 Coeff-Com:  0.739D-05 0.228D-05 0.366D-04-0.263D-03-0.119D-02-0.306D-02
 Coeff-Com:  0.114D-02 0.677D-01 0.300D+00 0.635D+00
 Coeff:      0.739D-05 0.228D-05 0.366D-04-0.263D-03-0.119D-02-0.306D-02
 Coeff:      0.114D-02 0.677D-01 0.300D+00 0.635D+00
 Gap=     0.240 Goal=   None    Shift=    0.000
 RMSDP=4.00D-07 MaxDP=2.55D-05 DE=-1.47D-08 OVMax= 5.68D-06

 Cycle  11  Pass 1  IDiag  1:
 E= -353.894661526387     Delta-E=       -0.000000000888 Rises=F Damp=F
 DIIS: error= 2.58D-07 at cycle  11 NSaved=  11.
 NSaved=11 IEnMin=11 EnMin= -353.894661526387     IErMin=11 ErrMin= 2.58D-07
 ErrMax= 2.58D-07 EMaxC= 1.00D-01 BMatC= 2.47D-11 BMatP= 8.80D-10
 IDIUse=1 WtCom= 1.00D+00 WtEn= 0.00D+00
 Coeff-Com: -0.825D-06 0.420D-05 0.191D-04 0.234D-04-0.332D-03-0.130D-02
 Coeff-Com: -0.288D-02 0.742D-02 0.666D-01 0.213D+00 0.718D+00
 Coeff:     -0.825D-06 0.420D-05 0.191D-04 0.234D-04-0.332D-03-0.130D-02
 Coeff:     -0.288D-02 0.742D-02 0.666D-01 0.213D+00 0.718D+00
 Gap=     0.240 Goal=   None    Shift=    0.000
 RMSDP=9.37D-08 MaxDP=4.58D-06 DE=-8.88D-10 OVMax= 1.24D-06

 Cycle  12  Pass 1  IDiag  1:
 E= -353.894661526406     Delta-E=       -0.000000000018 Rises=F Damp=F
 DIIS: error= 8.39D-08 at cycle  12 NSaved=  12.
 NSaved=12 IEnMin=12 EnMin= -353.894661526406     IErMin=12 ErrMin= 8.39D-08
 ErrMax= 8.39D-08 EMaxC= 1.00D-01 BMatC= 2.70D-12 BMatP= 2.47D-11
 IDIUse=1 WtCom= 1.00D+00 WtEn= 0.00D+00
 Coeff-Com: -0.424D-06 0.110D-05 0.547D-05 0.241D-04-0.506D-04-0.319D-03
 Coeff-Com: -0.119D-02-0.643D-03 0.117D-01 0.511D-01 0.301D+00 0.638D+00
 Coeff:     -0.424D-06 0.110D-05 0.547D-05 0.241D-04-0.506D-04-0.319D-03
 Coeff:     -0.119D-02-0.643D-03 0.117D-01 0.511D-01 0.301D+00 0.638D+00
 Gap=     0.240 Goal=   None    Shift=    0.000
 RMSDP=2.40D-08 MaxDP=2.24D-06 DE=-1.83D-11 OVMax= 3.62D-07

 Cycle  13  Pass 1  IDiag  1:
 E= -353.894661526413     Delta-E=       -0.000000000008 Rises=F Damp=F
 DIIS: error= 1.92D-08 at cycle  13 NSaved=  13.
 NSaved=13 IEnMin=13 EnMin= -353.894661526413     IErMin=13 ErrMin= 1.92D-08
 ErrMax= 1.92D-08 EMaxC= 1.00D-01 BMatC= 1.57D-13 BMatP= 2.70D-12
 IDIUse=1 WtCom= 1.00D+00 WtEn= 0.00D+00
 Coeff-Com: -0.712D-07 0.295D-06 0.170D-05 0.890D-05-0.994D-06-0.623D-04
 Coeff-Com: -0.346D-03-0.539D-03 0.221D-02 0.122D-01 0.988D-01 0.278D+00
 Coeff-Com:  0.610D+00
 Coeff:     -0.712D-07 0.295D-06 0.170D-05 0.890D-05-0.994D-06-0.623D-04
 Coeff:     -0.346D-03-0.539D-03 0.221D-02 0.122D-01 0.988D-01 0.278D+00
 Coeff:      0.610D+00
 Gap=     0.240 Goal=   None    Shift=    0.000
 RMSDP=5.18D-09 MaxDP=5.30D-07 DE=-7.73D-12 OVMax= 1.13D-07

 SCF Done:  E(RB3LYP) =  -353.894661526     A.U. after   13 cycles
             Convg  =    0.5178D-08             -V/T =  2.0053
 KE= 3.520372875905D+02 PE=-1.715048965205D+03 EE= 5.608691974060D+02
 Leave Link  502 at Sat Feb  8 14:54:25 2014, MaxMem= 4026531840 cpu:     867.8
 (Enter /usr/caen/gaussian-09revc/g09/l601.exe)
 Copying SCF densities to generalized density rwf, IOpCl= 0 IROHF=0.

 **********************************************************************

            Population analysis using the SCF density.

 **********************************************************************

 Orbital symmetries:
       Occupied  (A) (A) (A) (A) (A) (A) (A) (A) (A) (A) (A) (A)
                 (A) (A) (A) (A) (A) (A) (A) (A) (A) (A) (A) (A)
                 (A) (A) (A) (A) (A) (A) (A) (A) (A) (A) (A) (A)
       Virtual   (A) (A) (A) (A) (A) (A) (A) (A) (A) (A) (A) (A)
                 (A) (A) (A) (A) (A) (A) (A) (A) (A) (A) (A) (A)
                 (A) (A) (A) (A) (A) (A) (A) (A) (A) (A) (A) (A)
                 (A) (A) (A) (A) (A) (A) (A) (A) (A) (A) (A) (A)
                 (A) (A) (A) (A) (A) (A) (A) (A) (A) (A) (A) (A)
                 (A) (A) (A) (A) (A) (A) (A) (A) (A) (A) (A) (A)
                 (A) (A) (A) (A) (A) (A) (A) (A) (A) (A) (A) (A)
                 (A) (A) (A) (A) (A) (A) (A) (A) (A) (A) (A) (A)
                 (A) (A) (A) (A) (A) (A) (A) (A) (A) (A) (A) (A)
                 (A) (A) (A) (A) (A) (A) (A) (A) (A) (A) (A) (A)
                 (A) (A) (A) (A) (A) (A) (A) (A) (A) (A) (A) (A)
                 (A) (A) (A) (A) (A) (A) (A) (A) (A) (A) (A) (A)
                 (A) (A) (A) (A) (A) (A) (A) (A) (A) (A) (A) (A)
                 (A) (A) (A) (A) (A) (A) (A) (A) (A) (A) (A) (A)
                 (A) (A) (A) (A) (A) (A) (A) (A) (A) (A) (A) (A)
                 (A) (A) (A) (A) (A) (A) (A) (A) (A) (A) (A) (A)
                 (A) (A) (A) (A) (A) (A) (A) (A) (A) (A) (A) (A)
                 (A) (A) (A) (A) (A) (A) (A) (A) (A) (A) (A) (A)
                 (A) (A) (A) (A) (A) (A) (A) (A) (A) (A) (A) (A)
                 (A) (A) (A) (A) (A) (A) (A) (A) (A) (A) (A) (A)
                 (A) (A) (A) (A) (A) (A) (A) (A) (A) (A) (A) (A)
                 (A) (A) (A) (A) (A) (A) (A) (A) (A) (A) (A) (A)
                 (A) (A) (A) (A) (A) (A) (A) (A) (A) (A) (A) (A)
                 (A) (A) (A) (A) (A) (A) (A) (A) (A) (A) (A) (A)
 The electronic state is 1-A.
 Alpha  occ. eigenvalues --  -10.18063 -10.17341 -10.17087 -10.16451 -10.16432
 Alpha  occ. eigenvalues --  -10.16336 -10.15640 -10.15613 -10.15230  -0.82492
 Alpha  occ. eigenvalues --   -0.80484  -0.75210  -0.68601  -0.68386  -0.67687
 Alpha  occ. eigenvalues --   -0.60656  -0.56014  -0.52078  -0.47895  -0.46403
 Alpha  occ. eigenvalues --   -0.45046  -0.44290  -0.42873  -0.42029  -0.40717
 Alpha  occ. eigenvalues --   -0.38546  -0.38031  -0.37560  -0.36496  -0.35073
 Alpha  occ. eigenvalues --   -0.34913  -0.33875  -0.32279  -0.32084  -0.31040
 Alpha  occ. eigenvalues --   -0.25020
 Alpha virt. eigenvalues --   -0.00988  -0.00136  -0.00067   0.00697   0.01580
 Alpha virt. eigenvalues --    0.01801   0.02336   0.03598   0.03838   0.04009
 Alpha virt. eigenvalues --    0.04309   0.04423   0.05509   0.06111   0.06608
 Alpha virt. eigenvalues --    0.07065   0.07173   0.08590   0.08708   0.09403
 Alpha virt. eigenvalues --    0.09858   0.09922   0.10324   0.10941   0.11613
 Alpha virt. eigenvalues --    0.12062   0.12169   0.12827   0.13074   0.13332
 Alpha virt. eigenvalues --    0.13606   0.13983   0.14316   0.14415   0.14475
 Alpha virt. eigenvalues --    0.14717   0.15351   0.15495   0.15995   0.16517
 Alpha virt. eigenvalues --    0.16693   0.16929   0.17393   0.17950   0.18126
 Alpha virt. eigenvalues --    0.18248   0.18694   0.19107   0.19443   0.19886
 Alpha virt. eigenvalues --    0.20863   0.21254   0.21339   0.22127   0.22337
 Alpha virt. eigenvalues --    0.22662   0.23016   0.23878   0.24335   0.24766
 Alpha virt. eigenvalues --    0.26233   0.26302   0.26651   0.27026   0.28439
 Alpha virt. eigenvalues --    0.29359   0.30336   0.30664   0.31355   0.32656
 Alpha virt. eigenvalues --    0.33085   0.33610   0.34324   0.35314   0.35501
 Alpha virt. eigenvalues --    0.36288   0.36764   0.38739   0.39822   0.40378
 Alpha virt. eigenvalues --    0.42097   0.43843   0.44590   0.45735   0.46860
 Alpha virt. eigenvalues --    0.48812   0.51224   0.51364   0.52034   0.53630
 Alpha virt. eigenvalues --    0.54214   0.54589   0.56243   0.57559   0.58087
 Alpha virt. eigenvalues --    0.60112   0.61533   0.62100   0.63330   0.64170
 Alpha virt. eigenvalues --    0.65236   0.65943   0.66081   0.66931   0.67564
 Alpha virt. eigenvalues --    0.68057   0.68616   0.69348   0.69717   0.70289
 Alpha virt. eigenvalues --    0.71230   0.72202   0.72886   0.73132   0.74123
 Alpha virt. eigenvalues --    0.74570   0.75886   0.77336   0.77909   0.78733
 Alpha virt. eigenvalues --    0.80020   0.80507   0.81586   0.84388   0.87162
 Alpha virt. eigenvalues --    0.87763   0.91363   0.91955   0.94657   0.96016
 Alpha virt. eigenvalues --    0.96945   0.99881   1.00730   1.02149   1.05857
 Alpha virt. eigenvalues --    1.09730   1.11564   1.13336   1.14233   1.15380
 Alpha virt. eigenvalues --    1.19536   1.22601   1.25109   1.27229   1.33056
 Alpha virt. eigenvalues --    1.37109   1.37944   1.42022   1.42668   1.44936
 Alpha virt. eigenvalues --    1.45748   1.46059   1.46484   1.47223   1.48447
 Alpha virt. eigenvalues --    1.49905   1.53571   1.56256   1.56485   1.57488
 Alpha virt. eigenvalues --    1.58244   1.58935   1.59949   1.60565   1.62223
 Alpha virt. eigenvalues --    1.63830   1.64187   1.64671   1.65802   1.66264
 Alpha virt. eigenvalues --    1.66804   1.68364   1.69813   1.70530   1.71086
 Alpha virt. eigenvalues --    1.71745   1.73871   1.74544   1.77468   1.78448
 Alpha virt. eigenvalues --    1.80937   1.81528   1.82178   1.82659   1.86276
 Alpha virt. eigenvalues --    1.87254   1.89957   1.94792   1.95856   1.97491
 Alpha virt. eigenvalues --    1.98960   2.00344   2.01661   2.06227   2.07504
 Alpha virt. eigenvalues --    2.08970   2.10318   2.11740   2.13536   2.15043
 Alpha virt. eigenvalues --    2.17550   2.18640   2.21159   2.24460   2.26392
 Alpha virt. eigenvalues --    2.28605   2.32494   2.33013   2.34694   2.37632
 Alpha virt. eigenvalues --    2.39485   2.39945   2.42481   2.44901   2.46736
 Alpha virt. eigenvalues --    2.47480   2.49362   2.50616   2.50886   2.51956
 Alpha virt. eigenvalues --    2.52878   2.53831   2.54624   2.55509   2.57362
 Alpha virt. eigenvalues --    2.58309   2.59104   2.60460   2.62934   2.64059
 Alpha virt. eigenvalues --    2.64987   2.65421   2.65939   2.68463   2.70686
 Alpha virt. eigenvalues --    2.71639   2.75203   2.75741   2.76301   2.78087
 Alpha virt. eigenvalues --    2.78703   2.80943   2.82802   2.83755   2.86786
 Alpha virt. eigenvalues --    2.90210   2.94789   2.95483   2.96841   2.97649
 Alpha virt. eigenvalues --    3.00590   3.02248   3.04868   3.07004   3.08094
 Alpha virt. eigenvalues --    3.14313   3.17401   3.22817   3.33241   3.45553
 Alpha virt. eigenvalues --    3.51831   3.67625   3.75800   3.78563   3.78914
 Alpha virt. eigenvalues --    3.79677   3.80742   3.82320   3.83921   3.84949
 Alpha virt. eigenvalues --    3.85287   3.87864   3.99362   4.07068   4.17793
 Alpha virt. eigenvalues --    4.29996   4.30302   4.34509   4.46778  23.73160
 Alpha virt. eigenvalues --   23.83638  23.89609  23.91392  23.92449  23.97591
 Alpha virt. eigenvalues --   23.98024  23.98777  24.26358
          Condensed to atoms (all electrons):
              1          2          3          4          5          6
     1  C    6.079709   0.381638   0.344870   0.396533  -0.568691   0.578544
     2  H    0.381638   0.606891  -0.078437  -0.019523  -0.010622  -0.001302
     3  H    0.344870  -0.078437   0.603201  -0.018289   0.038937  -0.064249
     4  H    0.396533  -0.019523  -0.018289   0.541710  -0.086321  -0.018415
     5  C   -0.568691  -0.010622   0.038937  -0.086321   6.652505  -1.464441
     6  C    0.578544  -0.001302  -0.064249  -0.018415  -1.464441   8.843165
     7  H    0.003622   0.011007  -0.004839  -0.000151  -0.062615   0.440615
     8  H    0.007609  -0.004797   0.013501  -0.001605  -0.065620   0.424852
     9  C   -0.467482  -0.005288   0.020458   0.011643   0.662981  -2.006001
    10  H   -0.002438  -0.000854   0.001195  -0.000401   0.035407  -0.127221
    11  H   -0.001686   0.001903  -0.002464  -0.000108  -0.015792  -0.033989
    12  C    0.006189   0.000841  -0.000227  -0.000243  -0.147382   0.697684
    13  H    0.000125   0.000232  -0.000163  -0.000008   0.003764  -0.043976
    14  H    0.000330   0.000179   0.000090  -0.000034  -0.010247   0.005121
    15  C   -0.018712   0.000922  -0.000028  -0.000586  -0.135960  -0.225821
    16  H    0.000576   0.000137  -0.000083  -0.000023   0.001191   0.000048
    17  C   -0.001880   0.000068   0.000040   0.000031   0.006249  -0.037834
    18  H    0.000113  -0.000002   0.000002  -0.000001   0.000204   0.000972
    19  H   -0.000105   0.000004   0.000002  -0.000003  -0.000531  -0.001360
    20  H   -0.000117  -0.000015  -0.000013   0.000008   0.001174  -0.005358
    21  C    0.001675  -0.000455   0.000404   0.000085  -0.004643   0.076279
    22  H    0.000116  -0.000005   0.000012  -0.000002  -0.000684   0.001067
    23  H   -0.000251   0.000053  -0.000103  -0.000003   0.000393  -0.012898
    24  H   -0.001092  -0.000080   0.000155   0.000048   0.001045  -0.014261
    25  C   -0.158240  -0.031526  -0.003434   0.044154   0.465367  -0.565820
    26  H    0.024534  -0.002893  -0.002064   0.002480  -0.081625   0.002635
    27  H   -0.027461   0.001767   0.000993   0.004047  -0.004942  -0.018717
              7          8          9         10         11         12
     1  C    0.003622   0.007609  -0.467482  -0.002438  -0.001686   0.006189
     2  H    0.011007  -0.004797  -0.005288  -0.000854   0.001903   0.000841
     3  H   -0.004839   0.013501   0.020458   0.001195  -0.002464  -0.000227
     4  H   -0.000151  -0.001605   0.011643  -0.000401  -0.000108  -0.000243
     5  C   -0.062615  -0.065620   0.662981   0.035407  -0.015792  -0.147382
     6  C    0.440615   0.424852  -2.006001  -0.127221  -0.033989   0.697684
     7  H    0.673135  -0.122242  -0.053051  -0.033089   0.022645  -0.019509
     8  H   -0.122242   0.673316  -0.056474   0.026855  -0.035378   0.003606
     9  C   -0.053051  -0.056474   7.844873   0.507971   0.503759  -1.703101
    10  H   -0.033089   0.026855   0.507971   0.629298  -0.108501  -0.064878
    11  H    0.022645  -0.035378   0.503759  -0.108501   0.639273  -0.134746
    12  C   -0.019509   0.003606  -1.703101  -0.064878  -0.134746   8.580072
    13  H    0.005152   0.003178  -0.091124   0.014546  -0.016774   0.480441
    14  H    0.001304   0.003128  -0.049061  -0.021428   0.018549   0.368804
    15  C   -0.012409  -0.010391   0.380226   0.005942  -0.006138  -1.302634
    16  H   -0.002006   0.000800  -0.004034   0.016039   0.001204  -0.118416
    17  C   -0.000395  -0.002468  -0.195854  -0.003645   0.000575   0.406949
    18  H   -0.000940   0.000707   0.003519   0.001413   0.000845  -0.081872
    19  H   -0.000115   0.000113   0.001854   0.000076  -0.000953   0.047487
    20  H    0.001452  -0.000723  -0.002509  -0.001024   0.000209  -0.016227
    21  C    0.002295   0.000104   0.124567  -0.022022   0.015515  -0.004253
    22  H    0.000192  -0.000225   0.010836  -0.001478   0.001639   0.025279
    23  H   -0.000496   0.000456   0.003800   0.003267  -0.002660  -0.066698
    24  H    0.000174   0.000816   0.057762   0.002168  -0.003041  -0.070754
    25  C    0.010332  -0.003697   0.456452   0.014677   0.050742  -0.303066
    26  H    0.002693   0.002492   0.012099  -0.001757   0.003144  -0.003111
    27  H   -0.001851  -0.001532   0.027948   0.000185  -0.000061  -0.000567
             13         14         15         16         17         18
     1  C    0.000125   0.000330  -0.018712   0.000576  -0.001880   0.000113
     2  H    0.000232   0.000179   0.000922   0.000137   0.000068  -0.000002
     3  H   -0.000163   0.000090  -0.000028  -0.000083   0.000040   0.000002
     4  H   -0.000008  -0.000034  -0.000586  -0.000023   0.000031  -0.000001
     5  C    0.003764  -0.010247  -0.135960   0.001191   0.006249   0.000204
     6  C   -0.043976   0.005121  -0.225821   0.000048  -0.037834   0.000972
     7  H    0.005152   0.001304  -0.012409  -0.002006  -0.000395  -0.000940
     8  H    0.003178   0.003128  -0.010391   0.000800  -0.002468   0.000707
     9  C   -0.091124  -0.049061   0.380226  -0.004034  -0.195854   0.003519
    10  H    0.014546  -0.021428   0.005942   0.016039  -0.003645   0.001413
    11  H   -0.016774   0.018549  -0.006138   0.001204   0.000575   0.000845
    12  C    0.480441   0.368804  -1.302634  -0.118416   0.406949  -0.081872
    13  H    0.600480  -0.073592   0.013993   0.021173   0.001775   0.005244
    14  H   -0.073592   0.653805  -0.046505  -0.014036   0.012155   0.002688
    15  C    0.013993  -0.046505   6.595847   0.540524  -0.190347   0.084721
    16  H    0.021173  -0.014036   0.540524   0.614439  -0.066404   0.015626
    17  C    0.001775   0.012155  -0.190347  -0.066404   5.683391   0.373853
    18  H    0.005244   0.002688   0.084721   0.015626   0.373853   0.562892
    19  H   -0.002122   0.000155  -0.096036  -0.012476   0.401987  -0.033146
    20  H    0.002404   0.001573  -0.048370  -0.012897   0.416008  -0.047755
    21  C   -0.067893   0.022664  -0.026134  -0.112331  -0.159810  -0.033025
    22  H   -0.004064  -0.001687  -0.078425  -0.006236  -0.006929   0.002161
    23  H    0.012773  -0.002934   0.055611   0.013106  -0.006313   0.011092
    24  H    0.002558   0.000938  -0.035680  -0.011394   0.003720  -0.005082
    25  C   -0.005163   0.002666   0.019893  -0.002500  -0.003103  -0.000159
    26  H    0.000464   0.000807  -0.002759   0.000358   0.000129  -0.000005
    27  H   -0.000070   0.000053   0.000813  -0.000022   0.000049   0.000000
             19         20         21         22         23         24
     1  C   -0.000105  -0.000117   0.001675   0.000116  -0.000251  -0.001092
     2  H    0.000004  -0.000015  -0.000455  -0.000005   0.000053  -0.000080
     3  H    0.000002  -0.000013   0.000404   0.000012  -0.000103   0.000155
     4  H   -0.000003   0.000008   0.000085  -0.000002  -0.000003   0.000048
     5  C   -0.000531   0.001174  -0.004643  -0.000684   0.000393   0.001045
     6  C   -0.001360  -0.005358   0.076279   0.001067  -0.012898  -0.014261
     7  H   -0.000115   0.001452   0.002295   0.000192  -0.000496   0.000174
     8  H    0.000113  -0.000723   0.000104  -0.000225   0.000456   0.000816
     9  C    0.001854  -0.002509   0.124567   0.010836   0.003800   0.057762
    10  H    0.000076  -0.001024  -0.022022  -0.001478   0.003267   0.002168
    11  H   -0.000953   0.000209   0.015515   0.001639  -0.002660  -0.003041
    12  C    0.047487  -0.016227  -0.004253   0.025279  -0.066698  -0.070754
    13  H   -0.002122   0.002404  -0.067893  -0.004064   0.012773   0.002558
    14  H    0.000155   0.001573   0.022664  -0.001687  -0.002934   0.000938
    15  C   -0.096036  -0.048370  -0.026134  -0.078425   0.055611  -0.035680
    16  H   -0.012476  -0.012897  -0.112331  -0.006236   0.013106  -0.011394
    17  C    0.401987   0.416008  -0.159810  -0.006929  -0.006313   0.003720
    18  H   -0.033146  -0.047755  -0.033025   0.002161   0.011092  -0.005082
    19  H    0.561697  -0.017922  -0.005890   0.001685   0.000746   0.002541
    20  H   -0.017922   0.582621   0.020897   0.000975  -0.002229  -0.002088
    21  C   -0.005890   0.020897   5.617965   0.407989   0.359695   0.421185
    22  H    0.001685   0.000975   0.407989   0.567003  -0.029702  -0.029047
    23  H    0.000746  -0.002229   0.359695  -0.029702   0.559424  -0.039218
    24  H    0.002541  -0.002088   0.421185  -0.029047  -0.039218   0.581351
    25  C    0.000031   0.000599   0.005557  -0.000330   0.001350   0.001067
    26  H    0.000009   0.000048  -0.000566   0.000107   0.000119  -0.001793
    27  H    0.000005  -0.000003  -0.000329  -0.000017  -0.000002   0.000209
             25         26         27
     1  C   -0.158240   0.024534  -0.027461
     2  H   -0.031526  -0.002893   0.001767
     3  H   -0.003434  -0.002064   0.000993
     4  H    0.044154   0.002480   0.004047
     5  C    0.465367  -0.081625  -0.004942
     6  C   -0.565820   0.002635  -0.018717
     7  H    0.010332   0.002693  -0.001851
     8  H   -0.003697   0.002492  -0.001532
     9  C    0.456452   0.012099   0.027948
    10  H    0.014677  -0.001757   0.000185
    11  H    0.050742   0.003144  -0.000061
    12  C   -0.303066  -0.003111  -0.000567
    13  H   -0.005163   0.000464  -0.000070
    14  H    0.002666   0.000807   0.000053
    15  C    0.019893  -0.002759   0.000813
    16  H   -0.002500   0.000358  -0.000022
    17  C   -0.003103   0.000129   0.000049
    18  H   -0.000159  -0.000005   0.000000
    19  H    0.000031   0.000009   0.000005
    20  H    0.000599   0.000048  -0.000003
    21  C    0.005557  -0.000566  -0.000329
    22  H   -0.000330   0.000107  -0.000017
    23  H    0.001350   0.000119  -0.000002
    24  H    0.001067  -0.001793   0.000209
    25  C    6.180914   0.394147   0.381322
    26  H    0.394147   0.543520  -0.041492
    27  H    0.381322  -0.041492   0.545595
 Mulliken atomic charges:
              1
     1  C   -0.578026
     2  H    0.150161
     3  H    0.150534
     4  H    0.144978
     5  C    0.790900
     6  C   -0.429319
     7  H    0.139088
     8  H    0.143618
     9  C    0.003230
    10  H    0.129698
    11  H    0.102290
    12  C   -0.579667
    13  H    0.136647
    14  H    0.124513
    15  C    0.538441
    16  H    0.137639
    17  C   -0.631994
    18  H    0.135933
    19  H    0.152266
    20  H    0.129283
    21  C   -0.639524
    22  H    0.139770
    23  H    0.141622
    24  H    0.137794
    25  C   -0.952231
    26  H    0.148278
    27  H    0.134079
 Sum of Mulliken atomic charges =   0.00000
 Mulliken charges with hydrogens summed into heavy atoms:
              1
     1  C   -0.132353
     5  C    0.790900
     6  C   -0.146613
     9  C    0.235217
    12  C   -0.318507
    15  C    0.676081
    17  C   -0.214513
    21  C   -0.220338
    25  C   -0.669874
 Sum of Mulliken charges with hydrogens summed into heavy atoms =   0.00000
 Electronic spatial extent (au):  <R**2>=           2316.4988
 Charge=              0.0000 electrons
 Dipole moment (field-independent basis, Debye):
    X=             -0.1311    Y=             -0.4871    Z=              0.0545  Tot=              0.5074
 Quadrupole moment (field-independent basis, Debye-Ang):
   XX=            -61.2084   YY=            -61.2361   ZZ=            -61.9054
   XY=             -1.6325   XZ=              0.8116   YZ=             -0.5217
 Traceless Quadrupole moment (field-independent basis, Debye-Ang):
   XX=              0.2416   YY=              0.2139   ZZ=             -0.4555
   XY=             -1.6325   XZ=              0.8116   YZ=             -0.5217
 Octapole moment (field-independent basis, Debye-Ang**2):
  XXX=              9.1712  YYY=             -0.0418  ZZZ=              2.6574  XYY=              2.0548
  XXY=              0.2800  XXZ=             -0.3245  XZZ=             -4.2275  YZZ=             -3.2841
  YYZ=             -3.0651  XYZ=             -0.3701
 Hexadecapole moment (field-independent basis, Debye-Ang**3):
 XXXX=          -2702.8027 YYYY=           -416.0302 ZZZZ=           -161.5114 XXXY=            -10.6485
 XXXZ=              8.7212 YYYX=             -0.7075 YYYZ=              0.0353 ZZZX=              7.0235
 ZZZY=             -1.2617 XXYY=           -528.5724 XXZZ=           -496.2590 YYZZ=            -96.4755
 XXYZ=             -7.6332 YYXZ=             -2.3206 ZZXY=             -4.8135
 N-N= 4.482478186824D+02 E-N=-1.715048964751D+03  KE= 3.520372875905D+02
 No NMR shielding tensors so no spin-rotation constants.
 Leave Link  601 at Sat Feb  8 14:54:27 2014, MaxMem= 4026531840 cpu:       5.2
 (Enter /usr/caen/gaussian-09revc/g09/l801.exe)
 Range of M.O.s used for correlation:     1   324
 NBasis=   324 NAE=    36 NBE=    36 NFC=     0 NFV=     0
 NROrb=    324 NOA=    36 NOB=    36 NVA=   288 NVB=   288

 **** Warning!!: The largest alpha MO coefficient is  0.17997092D+03

 Leave Link  801 at Sat Feb  8 14:54:27 2014, MaxMem= 4026531840 cpu:       0.2
 (Enter /usr/caen/gaussian-09revc/g09/l914.exe)
 RHF ground state
 Doing stability rather than CIS.
 MDV=  4026531840 DFT=T DoStab=T Mixed=T DoRPA=F DoScal=F NonHer=F
 Keep R1 and R2 ints in memory in canonical form, NReq=3294295389.
 Symmetry not used in FoFDir.
 MinBra= 0 MaxBra= 2 Meth= 1.
 IRaf=       0 NMat=   1 IRICut=       1 DoRegI=T DoRafI=F ISym2E= 0 JSym2E=0.
 Making orbital integer symmetry assigments:
 Orbital symmetries:
       Occupied  (A) (A) (A) (A) (A) (A) (A) (A) (A) (A) (A) (A)
                 (A) (A) (A) (A) (A) (A) (A) (A) (A) (A) (A) (A)
                 (A) (A) (A) (A) (A) (A) (A) (A) (A) (A) (A) (A)
       Virtual   (A) (A) (A) (A) (A) (A) (A) (A) (A) (A) (A) (A)
                 (A) (A) (A) (A) (A) (A) (A) (A) (A) (A) (A) (A)
                 (A) (A) (A) (A) (A) (A) (A) (A) (A) (A) (A) (A)
                 (A) (A) (A) (A) (A) (A) (A) (A) (A) (A) (A) (A)
                 (A) (A) (A) (A) (A) (A) (A) (A) (A) (A) (A) (A)
                 (A) (A) (A) (A) (A) (A) (A) (A) (A) (A) (A) (A)
                 (A) (A) (A) (A) (A) (A) (A) (A) (A) (A) (A) (A)
                 (A) (A) (A) (A) (A) (A) (A) (A) (A) (A) (A) (A)
                 (A) (A) (A) (A) (A) (A) (A) (A) (A) (A) (A) (A)
                 (A) (A) (A) (A) (A) (A) (A) (A) (A) (A) (A) (A)
                 (A) (A) (A) (A) (A) (A) (A) (A) (A) (A) (A) (A)
                 (A) (A) (A) (A) (A) (A) (A) (A) (A) (A) (A) (A)
                 (A) (A) (A) (A) (A) (A) (A) (A) (A) (A) (A) (A)
                 (A) (A) (A) (A) (A) (A) (A) (A) (A) (A) (A) (A)
                 (A) (A) (A) (A) (A) (A) (A) (A) (A) (A) (A) (A)
                 (A) (A) (A) (A) (A) (A) (A) (A) (A) (A) (A) (A)
                 (A) (A) (A) (A) (A) (A) (A) (A) (A) (A) (A) (A)
                 (A) (A) (A) (A) (A) (A) (A) (A) (A) (A) (A) (A)
                 (A) (A) (A) (A) (A) (A) (A) (A) (A) (A) (A) (A)
                 (A) (A) (A) (A) (A) (A) (A) (A) (A) (A) (A) (A)
                 (A) (A) (A) (A) (A) (A) (A) (A) (A) (A) (A) (A)
                 (A) (A) (A) (A) (A) (A) (A) (A) (A) (A) (A) (A)
                 (A) (A) (A) (A) (A) (A) (A) (A) (A) (A) (A) (A)
                 (A) (A) (A) (A) (A) (A) (A) (A) (A) (A) (A) (A)
    24 initial guesses have been made.
 Convergence on wavefunction:    0.001000000000000
 Davidson Disk Diagonalization:  ConvIn= 1.00D-03 SkipCon=T Conv= 1.00D-03.
 Max sub-space:   200 roots to seek:    24 dimension of matrix:  20736
 Iteration     1 Dimension    24 NMult    24
 CISAX:  IP=  8 NPass=   1 NMax=    24.
 CISAX will form    24 AO SS matrices at one time.
 NMat=    24 NSing=    12.
 New state      1 was old state      6
 Excitation Energies [eV] at current iteration:
 Root      1 :     3.709084187456926
 Root      2 :     5.763161511218690
 Root      3 :     5.840500668001763
 Root      4 :     6.219657530290969
 Root      5 :     6.225886594876800
 Root      6 :     6.317078118512595
 Root      7 :     6.350481047786900
 Root      8 :     6.491199795094449
 Root      9 :     6.534847318554608
 Root     10 :     6.682753165708421
 Root     11 :     6.696973004555931
 Root     12 :     6.813265036127484
 Root     13 :     6.834112545944991
 Root     14 :     7.072251422850179
 Root     15 :     7.100247453677550
 Root     16 :     7.234380245740305
 Root     17 :     7.259632095892995
 Root     18 :     7.323535937244789
 Root     19 :     7.342776669338285
 Root     20 :     7.384451354832201
 Root     21 :     7.412568742379372
 Root     22 :     7.428219109205424
 Root     23 :     7.465721094350000
 Root     24 :    12.471319368572200
 Iteration     2 Dimension    48 NMult    48
 CISAX:  IP=  8 NPass=   1 NMax=    24.
 CISAX will form    24 AO SS matrices at one time.
 NMat=    24 NSing=    12.
 Root      1 not converged, maximum delta is    0.085892291198501
 Excitation Energies [eV] at current iteration:
 Root      1 :     2.915553003500538   Change is   -0.793531183956388
 Root      2 :     5.694821924461843   Change is   -0.068339586756846
 Root      3 :     5.820547581688645   Change is   -0.019953086313118
 Root      4 :     6.194190707625118   Change is   -0.025466822665851
 Root      5 :     6.214198154152613   Change is   -0.011688440724187
 Root      6 :     6.265900237059686
 Iteration     3 Dimension    54 NMult    54
 CISAX:  IP=  1 NPass=   1 NMax=     6.
 CISAX will form     6 AO SS matrices at one time.
 NMat=     6 NSing=     3.
 Root      1 not converged, maximum delta is    0.007785748628056
 Excitation Energies [eV] at current iteration:
 Root      1 :     2.899800219812753   Change is   -0.015752783687784
 Root      2 :     5.692832444361208   Change is   -0.001989480100635
 Root      3 :     5.817463780169723   Change is   -0.003083801518922
 Root      4 :     6.192793130856990   Change is   -0.001397576768128
 Root      5 :     6.213674796155057   Change is   -0.000523357997557
 Root      6 :     6.265566063786986   Change is   -0.000334173272700
 Iteration     4 Dimension    60 NMult    60
 CISAX:  IP=  1 NPass=   1 NMax=     6.
 CISAX will form     6 AO SS matrices at one time.
 NMat=     6 NSing=     3.
 Root      1 has converged.
 Excitation Energies [eV] at current iteration:
 Root      1 :     2.899279945838906   Change is   -0.000520273973848
 Root      2 :     5.692733423189021   Change is   -0.000099021172187
 Root      3 :     5.817316017424636   Change is   -0.000147762745087
 Root      4 :     6.192724448804761   Change is   -0.000068682052230
 Root      5 :     6.213598950353608   Change is   -0.000075845801449
 Root      6 :     6.265401845282618   Change is   -0.000164218504369
 Convergence achieved on expansion vectors.
 ***********************************************************************
 Stability analysis using <AA,BB:AA,BB> singles matrix:
 ***********************************************************************

 Eigenvectors of the stability matrix:
 
 Eigenvector   1:      Triplet-A    Eigenvalue= 0.1065466  <S**2>=2.000
      36 -> 38         0.27082
      36 -> 39         0.44811
      36 -> 41         0.30729
      36 -> 44         0.16025
      36 -> 48         0.19901
 SavETr:  write IOETrn=   770 NScale= 10 NData=  16 NLR=1 LETran=      28.
 The wavefunction is stable under the perturbations considered.
 Leave Link  914 at Sat Feb  8 15:00:23 2014, MaxMem= 4026531840 cpu:    2595.5
 (Enter /usr/caen/gaussian-09revc/g09/l502.exe)
 The wavefunction is already stable.
 Leave Link  502 at Sat Feb  8 15:00:23 2014, MaxMem= 4026531840 cpu:       0.1
 (Enter /usr/caen/gaussian-09revc/g09/l508.exe)
 The wavefunction is already stable.
 Leave Link  508 at Sat Feb  8 15:00:23 2014, MaxMem= 4026531840 cpu:       0.0
 (Enter /usr/caen/gaussian-09revc/g09/l601.exe)
 Copying SCF densities to generalized density rwf, IOpCl= 0 IROHF=0.

 **********************************************************************

            Population analysis using the SCF density.

 **********************************************************************

 Orbital symmetries:
       Occupied  (A) (A) (A) (A) (A) (A) (A) (A) (A) (A) (A) (A)
                 (A) (A) (A) (A) (A) (A) (A) (A) (A) (A) (A) (A)
                 (A) (A) (A) (A) (A) (A) (A) (A) (A) (A) (A) (A)
       Virtual   (A) (A) (A) (A) (A) (A) (A) (A) (A) (A) (A) (A)
                 (A) (A) (A) (A) (A) (A) (A) (A) (A) (A) (A) (A)
                 (A) (A) (A) (A) (A) (A) (A) (A) (A) (A) (A) (A)
                 (A) (A) (A) (A) (A) (A) (A) (A) (A) (A) (A) (A)
                 (A) (A) (A) (A) (A) (A) (A) (A) (A) (A) (A) (A)
                 (A) (A) (A) (A) (A) (A) (A) (A) (A) (A) (A) (A)
                 (A) (A) (A) (A) (A) (A) (A) (A) (A) (A) (A) (A)
                 (A) (A) (A) (A) (A) (A) (A) (A) (A) (A) (A) (A)
                 (A) (A) (A) (A) (A) (A) (A) (A) (A) (A) (A) (A)
                 (A) (A) (A) (A) (A) (A) (A) (A) (A) (A) (A) (A)
                 (A) (A) (A) (A) (A) (A) (A) (A) (A) (A) (A) (A)
                 (A) (A) (A) (A) (A) (A) (A) (A) (A) (A) (A) (A)
                 (A) (A) (A) (A) (A) (A) (A) (A) (A) (A) (A) (A)
                 (A) (A) (A) (A) (A) (A) (A) (A) (A) (A) (A) (A)
                 (A) (A) (A) (A) (A) (A) (A) (A) (A) (A) (A) (A)
                 (A) (A) (A) (A) (A) (A) (A) (A) (A) (A) (A) (A)
                 (A) (A) (A) (A) (A) (A) (A) (A) (A) (A) (A) (A)
                 (A) (A) (A) (A) (A) (A) (A) (A) (A) (A) (A) (A)
                 (A) (A) (A) (A) (A) (A) (A) (A) (A) (A) (A) (A)
                 (A) (A) (A) (A) (A) (A) (A) (A) (A) (A) (A) (A)
                 (A) (A) (A) (A) (A) (A) (A) (A) (A) (A) (A) (A)
                 (A) (A) (A) (A) (A) (A) (A) (A) (A) (A) (A) (A)
                 (A) (A) (A) (A) (A) (A) (A) (A) (A) (A) (A) (A)
                 (A) (A) (A) (A) (A) (A) (A) (A) (A) (A) (A) (A)
 The electronic state is 1-A.
 Alpha  occ. eigenvalues --  -10.18063 -10.17341 -10.17087 -10.16451 -10.16432
 Alpha  occ. eigenvalues --  -10.16336 -10.15640 -10.15613 -10.15230  -0.82492
 Alpha  occ. eigenvalues --   -0.80484  -0.75210  -0.68601  -0.68386  -0.67687
 Alpha  occ. eigenvalues --   -0.60656  -0.56014  -0.52078  -0.47895  -0.46403
 Alpha  occ. eigenvalues --   -0.45046  -0.44290  -0.42873  -0.42029  -0.40717
 Alpha  occ. eigenvalues --   -0.38546  -0.38031  -0.37560  -0.36496  -0.35073
 Alpha  occ. eigenvalues --   -0.34913  -0.33875  -0.32279  -0.32084  -0.31040
 Alpha  occ. eigenvalues --   -0.25020
 Alpha virt. eigenvalues --   -0.00988  -0.00136  -0.00067   0.00697   0.01580
 Alpha virt. eigenvalues --    0.01801   0.02336   0.03598   0.03838   0.04009
 Alpha virt. eigenvalues --    0.04309   0.04423   0.05509   0.06111   0.06608
 Alpha virt. eigenvalues --    0.07065   0.07173   0.08590   0.08708   0.09403
 Alpha virt. eigenvalues --    0.09858   0.09922   0.10324   0.10941   0.11613
 Alpha virt. eigenvalues --    0.12062   0.12169   0.12827   0.13074   0.13332
 Alpha virt. eigenvalues --    0.13606   0.13983   0.14316   0.14415   0.14475
 Alpha virt. eigenvalues --    0.14717   0.15351   0.15495   0.15995   0.16517
 Alpha virt. eigenvalues --    0.16693   0.16929   0.17393   0.17950   0.18126
 Alpha virt. eigenvalues --    0.18248   0.18694   0.19107   0.19443   0.19886
 Alpha virt. eigenvalues --    0.20863   0.21254   0.21339   0.22127   0.22337
 Alpha virt. eigenvalues --    0.22662   0.23016   0.23878   0.24335   0.24766
 Alpha virt. eigenvalues --    0.26233   0.26302   0.26651   0.27026   0.28439
 Alpha virt. eigenvalues --    0.29359   0.30336   0.30664   0.31355   0.32656
 Alpha virt. eigenvalues --    0.33085   0.33610   0.34324   0.35314   0.35501
 Alpha virt. eigenvalues --    0.36288   0.36764   0.38739   0.39822   0.40378
 Alpha virt. eigenvalues --    0.42097   0.43843   0.44590   0.45735   0.46860
 Alpha virt. eigenvalues --    0.48812   0.51224   0.51364   0.52034   0.53630
 Alpha virt. eigenvalues --    0.54214   0.54589   0.56243   0.57559   0.58087
 Alpha virt. eigenvalues --    0.60112   0.61533   0.62100   0.63330   0.64170
 Alpha virt. eigenvalues --    0.65236   0.65943   0.66081   0.66931   0.67564
 Alpha virt. eigenvalues --    0.68057   0.68616   0.69348   0.69717   0.70289
 Alpha virt. eigenvalues --    0.71230   0.72202   0.72886   0.73132   0.74123
 Alpha virt. eigenvalues --    0.74570   0.75886   0.77336   0.77909   0.78733
 Alpha virt. eigenvalues --    0.80020   0.80507   0.81586   0.84388   0.87162
 Alpha virt. eigenvalues --    0.87763   0.91363   0.91955   0.94657   0.96016
 Alpha virt. eigenvalues --    0.96945   0.99881   1.00730   1.02149   1.05857
 Alpha virt. eigenvalues --    1.09730   1.11564   1.13336   1.14233   1.15380
 Alpha virt. eigenvalues --    1.19536   1.22601   1.25109   1.27229   1.33056
 Alpha virt. eigenvalues --    1.37109   1.37944   1.42022   1.42668   1.44936
 Alpha virt. eigenvalues --    1.45748   1.46059   1.46484   1.47223   1.48447
 Alpha virt. eigenvalues --    1.49905   1.53571   1.56256   1.56485   1.57488
 Alpha virt. eigenvalues --    1.58244   1.58935   1.59949   1.60565   1.62223
 Alpha virt. eigenvalues --    1.63830   1.64187   1.64671   1.65802   1.66264
 Alpha virt. eigenvalues --    1.66804   1.68364   1.69813   1.70530   1.71086
 Alpha virt. eigenvalues --    1.71745   1.73871   1.74544   1.77468   1.78448
 Alpha virt. eigenvalues --    1.80937   1.81528   1.82178   1.82659   1.86276
 Alpha virt. eigenvalues --    1.87254   1.89957   1.94792   1.95856   1.97491
 Alpha virt. eigenvalues --    1.98960   2.00344   2.01661   2.06227   2.07504
 Alpha virt. eigenvalues --    2.08970   2.10318   2.11740   2.13536   2.15043
 Alpha virt. eigenvalues --    2.17550   2.18640   2.21159   2.24460   2.26392
 Alpha virt. eigenvalues --    2.28605   2.32494   2.33013   2.34694   2.37632
 Alpha virt. eigenvalues --    2.39485   2.39945   2.42481   2.44901   2.46736
 Alpha virt. eigenvalues --    2.47480   2.49362   2.50616   2.50886   2.51956
 Alpha virt. eigenvalues --    2.52878   2.53831   2.54624   2.55509   2.57362
 Alpha virt. eigenvalues --    2.58309   2.59104   2.60460   2.62934   2.64059
 Alpha virt. eigenvalues --    2.64987   2.65421   2.65939   2.68463   2.70686
 Alpha virt. eigenvalues --    2.71639   2.75203   2.75741   2.76301   2.78087
 Alpha virt. eigenvalues --    2.78703   2.80943   2.82802   2.83755   2.86786
 Alpha virt. eigenvalues --    2.90210   2.94789   2.95483   2.96841   2.97649
 Alpha virt. eigenvalues --    3.00590   3.02248   3.04868   3.07004   3.08094
 Alpha virt. eigenvalues --    3.14313   3.17401   3.22817   3.33241   3.45553
 Alpha virt. eigenvalues --    3.51831   3.67625   3.75800   3.78563   3.78914
 Alpha virt. eigenvalues --    3.79677   3.80742   3.82320   3.83921   3.84949
 Alpha virt. eigenvalues --    3.85287   3.87864   3.99362   4.07068   4.17793
 Alpha virt. eigenvalues --    4.29996   4.30302   4.34509   4.46778  23.73160
 Alpha virt. eigenvalues --   23.83638  23.89609  23.91392  23.92449  23.97591
 Alpha virt. eigenvalues --   23.98024  23.98777  24.26358
          Condensed to atoms (all electrons):
              1          2          3          4          5          6
     1  C    6.079709   0.381638   0.344870   0.396533  -0.568691   0.578544
     2  H    0.381638   0.606891  -0.078437  -0.019523  -0.010622  -0.001302
     3  H    0.344870  -0.078437   0.603201  -0.018289   0.038937  -0.064249
     4  H    0.396533  -0.019523  -0.018289   0.541710  -0.086321  -0.018415
     5  C   -0.568691  -0.010622   0.038937  -0.086321   6.652505  -1.464441
     6  C    0.578544  -0.001302  -0.064249  -0.018415  -1.464441   8.843165
     7  H    0.003622   0.011007  -0.004839  -0.000151  -0.062615   0.440615
     8  H    0.007609  -0.004797   0.013501  -0.001605  -0.065620   0.424852
     9  C   -0.467482  -0.005288   0.020458   0.011643   0.662981  -2.006001
    10  H   -0.002438  -0.000854   0.001195  -0.000401   0.035407  -0.127221
    11  H   -0.001686   0.001903  -0.002464  -0.000108  -0.015792  -0.033989
    12  C    0.006189   0.000841  -0.000227  -0.000243  -0.147382   0.697684
    13  H    0.000125   0.000232  -0.000163  -0.000008   0.003764  -0.043976
    14  H    0.000330   0.000179   0.000090  -0.000034  -0.010247   0.005121
    15  C   -0.018712   0.000922  -0.000028  -0.000586  -0.135960  -0.225821
    16  H    0.000576   0.000137  -0.000083  -0.000023   0.001191   0.000048
    17  C   -0.001880   0.000068   0.000040   0.000031   0.006249  -0.037834
    18  H    0.000113  -0.000002   0.000002  -0.000001   0.000204   0.000972
    19  H   -0.000105   0.000004   0.000002  -0.000003  -0.000531  -0.001360
    20  H   -0.000117  -0.000015  -0.000013   0.000008   0.001174  -0.005358
    21  C    0.001675  -0.000455   0.000404   0.000085  -0.004643   0.076279
    22  H    0.000116  -0.000005   0.000012  -0.000002  -0.000684   0.001067
    23  H   -0.000251   0.000053  -0.000103  -0.000003   0.000393  -0.012898
    24  H   -0.001092  -0.000080   0.000155   0.000048   0.001045  -0.014261
    25  C   -0.158240  -0.031526  -0.003434   0.044154   0.465367  -0.565820
    26  H    0.024534  -0.002893  -0.002064   0.002480  -0.081625   0.002635
    27  H   -0.027461   0.001767   0.000993   0.004047  -0.004942  -0.018717
              7          8          9         10         11         12
     1  C    0.003622   0.007609  -0.467482  -0.002438  -0.001686   0.006189
     2  H    0.011007  -0.004797  -0.005288  -0.000854   0.001903   0.000841
     3  H   -0.004839   0.013501   0.020458   0.001195  -0.002464  -0.000227
     4  H   -0.000151  -0.001605   0.011643  -0.000401  -0.000108  -0.000243
     5  C   -0.062615  -0.065620   0.662981   0.035407  -0.015792  -0.147382
     6  C    0.440615   0.424852  -2.006001  -0.127221  -0.033989   0.697684
     7  H    0.673135  -0.122242  -0.053051  -0.033089   0.022645  -0.019509
     8  H   -0.122242   0.673316  -0.056474   0.026855  -0.035378   0.003606
     9  C   -0.053051  -0.056474   7.844873   0.507971   0.503759  -1.703101
    10  H   -0.033089   0.026855   0.507971   0.629298  -0.108501  -0.064878
    11  H    0.022645  -0.035378   0.503759  -0.108501   0.639273  -0.134746
    12  C   -0.019509   0.003606  -1.703101  -0.064878  -0.134746   8.580072
    13  H    0.005152   0.003178  -0.091124   0.014546  -0.016774   0.480441
    14  H    0.001304   0.003128  -0.049061  -0.021428   0.018549   0.368804
    15  C   -0.012409  -0.010391   0.380226   0.005942  -0.006138  -1.302634
    16  H   -0.002006   0.000800  -0.004034   0.016039   0.001204  -0.118416
    17  C   -0.000395  -0.002468  -0.195854  -0.003645   0.000575   0.406949
    18  H   -0.000940   0.000707   0.003519   0.001413   0.000845  -0.081872
    19  H   -0.000115   0.000113   0.001854   0.000076  -0.000953   0.047487
    20  H    0.001452  -0.000723  -0.002509  -0.001024   0.000209  -0.016227
    21  C    0.002295   0.000104   0.124567  -0.022022   0.015515  -0.004253
    22  H    0.000192  -0.000225   0.010836  -0.001478   0.001639   0.025279
    23  H   -0.000496   0.000456   0.003800   0.003267  -0.002660  -0.066698
    24  H    0.000174   0.000816   0.057762   0.002168  -0.003041  -0.070754
    25  C    0.010332  -0.003697   0.456452   0.014677   0.050742  -0.303066
    26  H    0.002693   0.002492   0.012099  -0.001757   0.003144  -0.003111
    27  H   -0.001851  -0.001532   0.027948   0.000185  -0.000061  -0.000567
             13         14         15         16         17         18
     1  C    0.000125   0.000330  -0.018712   0.000576  -0.001880   0.000113
     2  H    0.000232   0.000179   0.000922   0.000137   0.000068  -0.000002
     3  H   -0.000163   0.000090  -0.000028  -0.000083   0.000040   0.000002
     4  H   -0.000008  -0.000034  -0.000586  -0.000023   0.000031  -0.000001
     5  C    0.003764  -0.010247  -0.135960   0.001191   0.006249   0.000204
     6  C   -0.043976   0.005121  -0.225821   0.000048  -0.037834   0.000972
     7  H    0.005152   0.001304  -0.012409  -0.002006  -0.000395  -0.000940
     8  H    0.003178   0.003128  -0.010391   0.000800  -0.002468   0.000707
     9  C   -0.091124  -0.049061   0.380226  -0.004034  -0.195854   0.003519
    10  H    0.014546  -0.021428   0.005942   0.016039  -0.003645   0.001413
    11  H   -0.016774   0.018549  -0.006138   0.001204   0.000575   0.000845
    12  C    0.480441   0.368804  -1.302634  -0.118416   0.406949  -0.081872
    13  H    0.600480  -0.073592   0.013993   0.021173   0.001775   0.005244
    14  H   -0.073592   0.653805  -0.046505  -0.014036   0.012155   0.002688
    15  C    0.013993  -0.046505   6.595847   0.540524  -0.190347   0.084721
    16  H    0.021173  -0.014036   0.540524   0.614439  -0.066404   0.015626
    17  C    0.001775   0.012155  -0.190347  -0.066404   5.683391   0.373853
    18  H    0.005244   0.002688   0.084721   0.015626   0.373853   0.562892
    19  H   -0.002122   0.000155  -0.096036  -0.012476   0.401987  -0.033146
    20  H    0.002404   0.001573  -0.048370  -0.012897   0.416008  -0.047755
    21  C   -0.067893   0.022664  -0.026134  -0.112331  -0.159810  -0.033025
    22  H   -0.004064  -0.001687  -0.078425  -0.006236  -0.006929   0.002161
    23  H    0.012773  -0.002934   0.055611   0.013106  -0.006313   0.011092
    24  H    0.002558   0.000938  -0.035680  -0.011394   0.003720  -0.005082
    25  C   -0.005163   0.002666   0.019893  -0.002500  -0.003103  -0.000159
    26  H    0.000464   0.000807  -0.002759   0.000358   0.000129  -0.000005
    27  H   -0.000070   0.000053   0.000813  -0.000022   0.000049   0.000000
             19         20         21         22         23         24
     1  C   -0.000105  -0.000117   0.001675   0.000116  -0.000251  -0.001092
     2  H    0.000004  -0.000015  -0.000455  -0.000005   0.000053  -0.000080
     3  H    0.000002  -0.000013   0.000404   0.000012  -0.000103   0.000155
     4  H   -0.000003   0.000008   0.000085  -0.000002  -0.000003   0.000048
     5  C   -0.000531   0.001174  -0.004643  -0.000684   0.000393   0.001045
     6  C   -0.001360  -0.005358   0.076279   0.001067  -0.012898  -0.014261
     7  H   -0.000115   0.001452   0.002295   0.000192  -0.000496   0.000174
     8  H    0.000113  -0.000723   0.000104  -0.000225   0.000456   0.000816
     9  C    0.001854  -0.002509   0.124567   0.010836   0.003800   0.057762
    10  H    0.000076  -0.001024  -0.022022  -0.001478   0.003267   0.002168
    11  H   -0.000953   0.000209   0.015515   0.001639  -0.002660  -0.003041
    12  C    0.047487  -0.016227  -0.004253   0.025279  -0.066698  -0.070754
    13  H   -0.002122   0.002404  -0.067893  -0.004064   0.012773   0.002558
    14  H    0.000155   0.001573   0.022664  -0.001687  -0.002934   0.000938
    15  C   -0.096036  -0.048370  -0.026134  -0.078425   0.055611  -0.035680
    16  H   -0.012476  -0.012897  -0.112331  -0.006236   0.013106  -0.011394
    17  C    0.401987   0.416008  -0.159810  -0.006929  -0.006313   0.003720
    18  H   -0.033146  -0.047755  -0.033025   0.002161   0.011092  -0.005082
    19  H    0.561697  -0.017922  -0.005890   0.001685   0.000746   0.002541
    20  H   -0.017922   0.582621   0.020897   0.000975  -0.002229  -0.002088
    21  C   -0.005890   0.020897   5.617965   0.407989   0.359695   0.421185
    22  H    0.001685   0.000975   0.407989   0.567003  -0.029702  -0.029047
    23  H    0.000746  -0.002229   0.359695  -0.029702   0.559424  -0.039218
    24  H    0.002541  -0.002088   0.421185  -0.029047  -0.039218   0.581351
    25  C    0.000031   0.000599   0.005557  -0.000330   0.001350   0.001067
    26  H    0.000009   0.000048  -0.000566   0.000107   0.000119  -0.001793
    27  H    0.000005  -0.000003  -0.000329  -0.000017  -0.000002   0.000209
             25         26         27
     1  C   -0.158240   0.024534  -0.027461
     2  H   -0.031526  -0.002893   0.001767
     3  H   -0.003434  -0.002064   0.000993
     4  H    0.044154   0.002480   0.004047
     5  C    0.465367  -0.081625  -0.004942
     6  C   -0.565820   0.002635  -0.018717
     7  H    0.010332   0.002693  -0.001851
     8  H   -0.003697   0.002492  -0.001532
     9  C    0.456452   0.012099   0.027948
    10  H    0.014677  -0.001757   0.000185
    11  H    0.050742   0.003144  -0.000061
    12  C   -0.303066  -0.003111  -0.000567
    13  H   -0.005163   0.000464  -0.000070
    14  H    0.002666   0.000807   0.000053
    15  C    0.019893  -0.002759   0.000813
    16  H   -0.002500   0.000358  -0.000022
    17  C   -0.003103   0.000129   0.000049
    18  H   -0.000159  -0.000005   0.000000
    19  H    0.000031   0.000009   0.000005
    20  H    0.000599   0.000048  -0.000003
    21  C    0.005557  -0.000566  -0.000329
    22  H   -0.000330   0.000107  -0.000017
    23  H    0.001350   0.000119  -0.000002
    24  H    0.001067  -0.001793   0.000209
    25  C    6.180914   0.394147   0.381322
    26  H    0.394147   0.543520  -0.041492
    27  H    0.381322  -0.041492   0.545595
 Mulliken atomic charges:
              1
     1  C   -0.578026
     2  H    0.150161
     3  H    0.150534
     4  H    0.144978
     5  C    0.790900
     6  C   -0.429319
     7  H    0.139088
     8  H    0.143618
     9  C    0.003230
    10  H    0.129698
    11  H    0.102290
    12  C   -0.579667
    13  H    0.136647
    14  H    0.124513
    15  C    0.538441
    16  H    0.137639
    17  C   -0.631994
    18  H    0.135933
    19  H    0.152266
    20  H    0.129283
    21  C   -0.639524
    22  H    0.139770
    23  H    0.141622
    24  H    0.137794
    25  C   -0.952231
    26  H    0.148278
    27  H    0.134079
 Sum of Mulliken atomic charges =   0.00000
 Mulliken charges with hydrogens summed into heavy atoms:
              1
     1  C   -0.132353
     5  C    0.790900
     6  C   -0.146613
     9  C    0.235217
    12  C   -0.318507
    15  C    0.676081
    17  C   -0.214513
    21  C   -0.220338
    25  C   -0.669874
 Sum of Mulliken charges with hydrogens summed into heavy atoms =   0.00000
 Electronic spatial extent (au):  <R**2>=           2316.4988
 Charge=              0.0000 electrons
 Dipole moment (field-independent basis, Debye):
    X=             -0.1311    Y=             -0.4871    Z=              0.0545  Tot=              0.5074
 Quadrupole moment (field-independent basis, Debye-Ang):
   XX=            -61.2084   YY=            -61.2361   ZZ=            -61.9054
   XY=             -1.6325   XZ=              0.8116   YZ=             -0.5217
 Traceless Quadrupole moment (field-independent basis, Debye-Ang):
   XX=              0.2416   YY=              0.2139   ZZ=             -0.4555
   XY=             -1.6325   XZ=              0.8116   YZ=             -0.5217
 Octapole moment (field-independent basis, Debye-Ang**2):
  XXX=              9.1712  YYY=             -0.0418  ZZZ=              2.6574  XYY=              2.0548
  XXY=              0.2800  XXZ=             -0.3245  XZZ=             -4.2275  YZZ=             -3.2841
  YYZ=             -3.0651  XYZ=             -0.3701
 Hexadecapole moment (field-independent basis, Debye-Ang**3):
 XXXX=          -2702.8027 YYYY=           -416.0302 ZZZZ=           -161.5114 XXXY=            -10.6485
 XXXZ=              8.7212 YYYX=             -0.7075 YYYZ=              0.0353 ZZZX=              7.0235
 ZZZY=             -1.2617 XXYY=           -528.5724 XXZZ=           -496.2590 YYZZ=            -96.4755
 XXYZ=             -7.6332 YYXZ=             -2.3206 ZZXY=             -4.8135
 N-N= 4.482478186824D+02 E-N=-1.715048964751D+03  KE= 3.520372875905D+02
[...]
 0000693,0.00000407,-0.00000211,0.00000282,-0.00013978,0.00021286,0.000
 28012,-0.00001370,-0.00006247,0.00000175,0.00021823,0.00016103,0.00007
 378,0.00149060,0.00022025,0.00006117,-0.00000346,0.00006256,0.00010000
 ,-0.00054028,0.00096038,0.00010798,0.00451846,-0.01623970,-0.01297894,
 0.00040741,0.00026616,0.00054853,0.03029084,-0.20133564,-0.12249545,-0
 .00194971,0.00994460,0.00700061,0.00199965,-0.01140561,-0.00877713,-0.
 03163283,0.21981158,-0.00000239,-0.00000591,-0.00000233,-0.00000394,0.
 00000387,0.00000554,-0.00000207,-0.00000154,-0.00000357,-0.00000126,0.
 00000317,-0.00000063,-0.00002080,0.00001518,0.00000395,-0.00003015,-0.
 00005414,-0.00001913,-0.00002300,0.00001724,0.00002553,-0.00000482,-0.
 00000490,-0.00001308,-0.00024699,0.00028579,0.00017335,0.00002326,0.00
 001367,-0.00004335,0.00012576,0.00011128,0.00000432,0.00037154,-0.0002
 5666,-0.00023115,0.00002608,-0.00011917,-0.00001945,-0.00049776,0.0002
 6844,0.00030524,-0.00020087,0.00262737,0.00051977,-0.00055018,0.000008
 29,0.00063741,0.02382976,-0.12287542,-0.14481209,0.00490874,-0.0238763
 4,-0.01794142,-0.00073670,0.00797142,0.00591760,-0.02715771,0.13560169
 ,0.15389036,-0.00003446,-0.00004102,0.00002170,0.00002102,-0.00001377,
 -0.00000693,0.00001763,-0.00000506,0.00001029,-0.00002308,-0.00000171,
 0.00000080,0.00014687,0.00001186,-0.00010629,-0.00002449,0.00007740,0.
 00020428,0.00000629,-0.00020763,-0.00014972,0.00006710,-0.00001043,0.0
 0003437,0.00039227,0.00083766,0.00019326,-0.00008811,-0.00003414,0.000
 28936,-0.00089616,0.00048644,0.00001733,-0.00628048,0.02535367,0.01752
 996,0.00126465,-0.00105898,0.00050341,-0.00507052,0.00280695,-0.001004
 48,-0.08120139,0.01503159,0.01081240,-0.00071412,0.00269664,0.00197724
 ,0.00349278,-0.02250775,-0.01630914,0.00070898,0.00053333,-0.00019509,
 0.00061223,-0.00076066,-0.00053674,-0.00417809,-0.00458997,-0.00037299
 ,0.56564428,-0.00003523,-0.00003240,-0.00000029,0.00000698,-0.00000868
 ,0.00000340,0.00000946,-0.00001108,0.00001199,-0.00000376,0.00001087,-
 0.00000146,-0.00008484,0.00016865,0.00000016,-0.00051658,-0.00061521,-
 0.00034533,0.00019608,-0.00012624,0.00007629,0.00002371,-0.00002553,0.
 00005919,0.00045968,0.00117220,0.00082147,0.00014224,0.00002794,-0.000
 14523,-0.00009245,-0.00054658,-0.00083818,0.00864953,-0.01671750,-0.00
 880163,-0.00105202,0.00058797,-0.00083611,0.00191034,-0.00010716,0.000
 38382,0.01140688,-0.13702626,-0.04501835,-0.00142253,0.00648570,0.0042
 0867,-0.00118048,-0.02573871,-0.01600359,0.00126002,0.00097738,-0.0004
 3587,0.00154222,0.00135914,0.00030235,-0.00248501,-0.00220569,0.000114
 67,0.01930009,0.50187777,-0.00004821,-0.00004982,0.00002390,0.00000764
 ,0.00000134,-0.00000422,0.00000083,0.00000912,-0.00000707,-0.00003302,
 0.00000180,-0.00000426,0.00003218,0.00009077,-0.00007701,-0.00019403,-
 0.00017546,0.00033735,0.00000191,-0.00000575,-0.00007231,0.00000496,0.
 00002961,-0.00003571,-0.00006892,0.00036619,-0.00013590,-0.00007771,0.
 00000353,0.00008967,0.00014275,0.00001126,0.00031064,0.00161973,0.0049
 7591,0.00495387,-0.00078230,0.00131494,0.00094144,-0.00249650,0.002328
 01,0.00025917,0.00986887,-0.04710719,-0.11534670,0.00558313,-0.0275358
 6,-0.02041073,-0.00237031,-0.00237107,0.00009571,0.00050771,0.00147874
 ,0.00096155,0.00022640,-0.00000109,-0.00012503,0.00066983,0.00152080,0
 .00087823,0.01422259,-0.04868583,0.51900256,-0.00003427,-0.00003788,0.
 00000891,0.00000667,0.00000602,-0.00000046,0.00000655,0.00000447,-0.00
 000270,-0.00003406,-0.00000476,-0.00000092,0.00009249,0.00007193,-0.00
 002934,0.00006173,0.00006713,0.00019732,-0.00011249,0.00005041,-0.0000
 3128,-0.00001027,0.00000198,-0.00002092,0.00010826,-0.00004604,-0.0003
 9363,-0.00001682,0.00002750,0.00009775,0.00027069,0.00025979,0.0002295
 0,0.00095118,0.00019416,0.00145682,0.00008494,-0.00011432,-0.00009297,
 -0.00029711,0.00029659,-0.00010041,-0.00551684,0.00177080,-0.00152436,
 0.00002364,-0.00002142,0.00051634,0.00063547,-0.00106339,-0.00030899,-
 0.00000816,0.00001442,0.00003871,0.00066969,0.00017496,-0.00003313,0.0
 0021105,-0.00008068,0.00021147,-0.23943068,0.09684000,-0.05809224,0.25
 990268,0.00002579,0.00002627,-0.00001019,-0.00000650,-0.00000003,0.000
 00111,-0.00000615,-0.00000093,-0.00000127,0.00001765,-0.00000036,-0.00
 000034,-0.00001638,-0.00005136,0.00004283,0.00020129,0.00025589,0.0000
 8361,-0.00011158,0.00009627,0.00001402,-0.00002486,-0.00000207,-0.0000
 1548,-0.00069143,-0.00040023,-0.00021392,0.00007006,0.00003349,-0.0000
 1289,0.00018913,0.00032817,0.00030162,-0.00070961,-0.00395882,-0.00428
 496,-0.00036639,0.00026684,-0.00010062,0.00167157,-0.00083250,0.000072
 40,0.02253298,-0.01229247,0.00829548,-0.00037383,0.00101512,-0.0000814
 3,0.00140794,0.00085634,0.00098512,-0.00003366,-0.00008445,-0.00000171
 ,-0.00095305,-0.00029364,-0.00045748,-0.00023005,0.00048356,-0.0000418
 7,0.09551185,-0.09388378,0.02944843,-0.10690899,0.10261181,0.00000903,
 0.00000865,-0.00000772,-0.00000247,0.00000222,0.00000277,0.00000044,-0
 .00000244,0.00000033,0.00000395,-0.00000162,0.00000090,-0.00000137,-0.
 00001196,0.00002705,0.00006127,0.00004994,-0.00004554,-0.00001552,0.00
 003792,0.00003475,0.00000421,-0.00002762,0.00000549,-0.00022949,-0.000
 26191,0.00004824,-0.00000762,0.00004329,0.00001465,0.00004802,0.000149
 25,-0.00003420,-0.00019035,-0.00294749,-0.00233897,0.00010953,-0.00033
 353,0.00030788,0.00090156,-0.00068824,0.00050536,0.01805547,-0.0091619
 2,0.00495153,0.00014305,0.00083168,0.00066056,0.00053358,0.00063195,0.
 00054400,-0.00020196,0.00004302,-0.00006079,-0.00029667,-0.00000006,0.
 00014367,0.00019227,0.00023332,-0.00009040,-0.05871505,0.03023664,-0.0
 6423075,0.06392871,-0.02977484,0.06708230,0.00000331,0.00000628,0.0000
 0504,-0.00000172,-0.00000166,-0.00000225,-0.00000491,0.00000511,-0.000
 00327,0.00000515,0.00000190,-0.00000008,-0.00003274,-0.00000360,-0.000
 01632,0.00000678,0.00000712,-0.00000687,0.00001348,0.00000237,-0.00000
 012,-0.00003541,0.00004652,-0.00002690,-0.00018716,0.00006661,-0.00006
 880,0.00013305,-0.00005076,-0.00017285,-0.00006092,-0.00012719,0.00009
 276,0.00046622,-0.00077297,0.00120798,0.00008740,0.00021950,-0.0002765
 3,0.00004544,-0.00003318,-0.00024572,-0.00167573,-0.00132578,0.0063165
 4,0.00043673,0.00115449,0.00079157,0.00007201,0.00009563,-0.00094398,0
 .00032266,-0.00012453,-0.00001801,0.00001831,0.00005744,-0.00013025,-0
 .00012335,0.00000258,0.00012069,-0.04837058,-0.00507773,0.01488435,0.0
 0264140,0.00779035,-0.02761203,0.04735620,-0.00000366,-0.00000242,0.00
 000397,-0.00000051,0.00000159,-0.00000231,-0.00000102,0.00000661,-0.00
 000324,-0.00000535,-0.00000142,0.00000114,0.00000551,0.00000136,-0.000
 00741,0.00004534,0.00001954,0.00004167,-0.00000828,0.00001237,-0.00000
 890,0.00000683,0.00001699,-0.00000801,-0.00000193,0.00004655,0.0000560
 6,-0.00009178,-0.00010787,-0.00001508,0.00001326,-0.00003564,0.0001105
 7,-0.00070884,0.00171304,-0.00068842,-0.00001895,-0.00003156,0.0006962
 2,-0.00032744,0.00017838,0.00025325,0.00176474,0.00691645,-0.02632049,
 0.00098816,-0.00390050,-0.00368613,0.00060148,0.00172266,-0.00057567,-
 0.00013474,-0.00021449,0.00060257,-0.00007981,-0.00011042,0.00006247,0
 .00015053,0.00018634,0.00033137,-0.00489783,-0.06777507,0.06960263,-0.
 00176424,-0.00474619,0.01274633,0.00430775,0.07258950,0.00001332,0.000
 01203,-0.00001286,-0.00000045,0.00000033,0.00000071,0.00000237,-0.0000
 0695,0.00000732,0.00000972,-0.00000127,0.00000005,0.00000536,-0.000032
 61,0.00002283,0.00002070,0.00005437,-0.00002986,0.00000147,-0.00000195
 ,0.00000452,0.00004062,-0.00004342,0.00003260,0.00019496,-0.00017441,0
 .00004149,-0.00017999,-0.00002234,0.00013358,0.00009190,0.00006418,-0.
 00014897,-0.00088210,0.00113440,0.00062852,0.00074455,-0.00062004,0.00
 071670,-0.00011167,-0.00008339,0.00045306,0.00176811,0.00514256,-0.021
 14782,0.00061732,-0.00402729,-0.00103120,0.00036185,0.00108285,0.00056
 786,-0.00065198,-0.00079930,0.00049737,0.00001247,-0.00003678,-0.00004
 365,-0.00000655,-0.00014974,0.00047574,0.01486433,0.06945310,-0.277900
 88,0.00038863,0.00229237,-0.00749845,-0.01759633,-0.07403510,0.3060359
 5,0.00002032,0.00002305,-0.00000324,-0.00000605,0.00000105,0.00000208,
 -0.00000427,-0.00000115,-0.00000203,0.00001418,-0.00000067,-0.00000039
 ,0.00000427,-0.00005374,0.00001308,0.00008369,0.00017737,0.00004962,-0
 .00004136,0.00004309,0.00000179,0.00000490,-0.00000269,0.00000006,-0.0
 0097678,0.00042347,-0.00002633,0.00002683,-0.00006469,0.00001728,-0.00
 133042,0.00117649,0.00044935,0.00015526,-0.00032174,-0.00051792,-0.000
 04976,0.00007089,-0.00000594,0.00013818,-0.00017355,0.00006408,0.00495
 641,0.00505120,-0.00131768,0.00034207,-0.00042741,-0.00059174,0.000274
 27,0.00069282,-0.00001908,-0.00005717,0.00012033,0.00003802,0.00040784
 ,0.00013292,0.00024509,0.00034526,0.00008263,0.00021944,-0.18589461,-0
 .12976170,0.01646682,-0.02014490,-0.01904790,0.00326388,-0.00115164,0.
 00015572,0.00029161,0.20285038,-0.00001830,-0.00002441,0.00000181,0.00
 000012,0.00001044,0.00000222,-0.00000003,0.00000564,-0.00000940,-0.000
 02614,-0.00000660,-0.00000128,0.00010974,0.00002395,-0.00000005,0.0003
 4108,0.00041362,0.00036012,-0.00025824,0.00017457,-0.00001507,-0.00005
 615,0.00001414,-0.00006808,-0.00036916,-0.00060252,-0.00072391,0.00006
 740,-0.00000938,0.00000428,0.00108614,0.00052051,0.00050687,-0.0011631
 2,0.00061626,0.00045174,0.00006943,-0.00006257,-0.00004808,0.00003555,
 0.00017665,-0.00005734,-0.01876151,-0.01671915,0.00423785,0.00024902,0
 .00116874,-0.00007765,0.00264995,-0.00356111,-0.00402482,0.00030376,0.
 00031191,0.00005840,-0.00009504,0.00025844,-0.00006782,-0.00142617,-0.
 00110132,-0.00014828,-0.12845657,-0.16782380,0.01476636,0.01026254,0.0
 1055151,-0.00181795,-0.00623414,-0.00647261,0.00079141,0.14170017,0.18
 211476,-0.00000159,0.00000266,0.00000406,-0.00000098,-0.00000032,-0.00
 000174,-0.00000174,0.00000590,-0.00000211,-0.00000192,0.00000005,0.000
 00232,0.00000189,0.00001225,-0.00001917,0.00004592,0.00001069,-0.00010
 599,-0.00000196,-0.00001890,-0.00000174,-0.00004305,0.00005382,-0.0000
 2632,0.00015073,0.00015345,0.00044535,0.00006617,-0.00009263,-0.000282
 04,0.00006631,-0.00024119,0.00013900,-0.00006079,0.00072977,0.00039823
 ,0.00010922,0.00003564,0.00000212,-0.00013695,0.00005954,-0.00007955,-
 0.01594935,-0.01266423,0.00150188,-0.00041585,0.00074186,0.00064425,0.
 00141709,-0.00304425,-0.00226936,-0.00010065,-0.00037345,0.00027080,0.
 00032061,0.00019122,-0.00005967,-0.00079250,-0.00116135,0.00034321,0.0
 1668403,0.01543164,-0.04950799,-0.00644149,-0.00653183,-0.00001874,0.0
 2370005,0.02084185,-0.00180546,-0.01863884,-0.01411464,0.05041788,0.00
 176752,0.02907759,-0.00891462,-0.00275799,0.00311691,-0.00059549,-0.00
 278170,0.00289276,-0.00140166,0.00137814,0.00143699,-0.00033010,-0.113
 50639,-0.03938663,0.00942746,-0.00126592,-0.03002035,0.00867181,-0.003
 43250,-0.00225593,0.00033933,-0.00340129,-0.00215186,0.00073229,0.0002
 3014,-0.00231402,0.00079714,-0.00036637,-0.00021183,-0.00032734,-0.000
 47659,-0.00011150,0.00035179,0.00002773,0.00001295,-0.00005584,0.00001
 499,0.00005247,-0.00016750,0.00000110,0.00017997,0.00013596,0.00012248
 ,-0.00008513,0.00007619,-0.00006056,0.00003538,-0.00007032,-0.00005083
 ,0.00009512,-0.00001873,0.00002204,-0.00000420,-0.00000220,-0.00006649
 ,-0.00000271,-0.00000561,0.00002892,0.00001415,0.00001565,-0.00016622,
 -0.00004766,-0.00005310,-0.00004070,0.00005294,0.00001740,0.00003104,0
 .00000977,-0.00000955,0.00002784,0.00001277,0.00002218,0.64197913,0.00
 540286,-0.02410215,0.00977539,0.00048799,0.00024606,0.00074395,0.00075
 997,-0.00018505,-0.00067096,-0.00184919,0.00085407,-0.00045477,-0.0335
 6302,-0.49096469,0.12959260,-0.01007576,-0.01708159,0.00710053,-0.0003
 2784,0.00123174,0.00052420,-0.00057291,0.00075322,-0.00112159,0.000866
 57,-0.00079828,-0.00004983,-0.00052044,0.00051942,0.00054260,-0.000480
 63,0.00033646,-0.00066519,0.00054454,-0.00038910,0.00019849,-0.0000616
 3,-0.00011065,-0.00002208,-0.00006286,-0.00002860,0.00007931,0.0001310
 8,0.00006095,-0.00002241,-0.00002186,0.00002603,0.00000247,0.00000098,
 0.00003215,0.00000839,0.00000211,-0.00001317,0.00000362,-0.00003349,0.
 00000572,-0.00000512,0.00001277,-0.00000012,0.00000936,-0.00004451,0.0
 0001548,-0.00002412,-0.00003888,0.00001673,0.00001336,-0.00001528,-0.0
 0002099,0.00002166,0.00001960,-0.00003005,-0.00004456,0.01699555,0.774
 43462,-0.00183927,0.01061037,0.00468079,-0.00058281,0.00004877,-0.0001
 8669,0.00002163,0.00021442,0.00021829,0.00060113,-0.00034966,-0.000347
 29,0.00773255,0.12963496,-0.09143846,0.00270276,0.00636866,0.00606614,
 0.00050277,-0.00046379,-0.00007510,-0.00050843,-0.00028593,0.00037482,
 -0.00019618,-0.00025119,-0.00126913,0.00011388,-0.00041594,0.00029884,
 0.00020976,0.00038170,0.00045691,-0.00018517,0.00025466,0.00030511,-0.
 00006622,-0.00004751,0.00003518,0.00010340,0.00010255,-0.00003176,-0.0
 0002117,-0.00004036,-0.00009902,0.00002384,-0.00001058,0.00004399,-0.0
 0000817,0.00000157,0.00001653,-0.00000696,-0.00000530,0.00000803,0.000
 00716,-0.00000485,-0.00000338,0.00000391,0.00001942,0.00000032,-0.0000
 1877,-0.00004652,0.00001640,0.00003061,0.00000801,0.00000365,-0.000012
 22,-0.00000524,0.00001970,-0.00001151,0.00003709,-0.00002463,0.0149998
 2,-0.20060543,0.16266555,0.00054410,-0.00101037,-0.00016508,0.00023574
 ,0.00010977,-0.00011541,0.00011808,0.00029340,0.00003226,0.00059562,-0
 .00015109,0.00007719,0.00515171,-0.00202090,0.00059143,-0.00060528,-0.
 00010460,0.00027318,0.00007872,0.00022706,-0.00006188,0.00000104,0.000
 14681,-0.00006874,-0.00124961,-0.00162239,0.00041773,-0.00074208,-0.00
 044499,0.00018493,-0.00046700,-0.00052750,0.00003649,0.00007880,-0.000
 42259,0.00013794,-0.00003133,-0.00001586,-0.00001831,-0.00004943,-0.00
 000804,0.00002089,0.00004257,0.00008419,-0.00003144,-0.00000343,-0.000
 00331,-0.00000101,0.00002459,-0.00002404,0.00000679,-0.00000150,0.0000
 0137,-0.00000056,0.00001973,0.00000388,0.00000100,-0.00000345,0.000001
 24,-0.00000056,-0.00000147,-0.00002080,0.00000102,0.00002109,0.0000012
 4,-0.00000101,0.00000461,0.00000729,-0.00000228,-0.00000933,0.00002179
 ,0.00001506,-0.23469993,0.12881843,-0.04608324,0.24665679,-0.00252821,
 -0.00219738,0.00443536,0.00021241,-0.00012496,0.00002400,0.00114619,-0
 .00119597,0.00025751,0.00001217,0.00025408,-0.00013387,0.02610086,-0.0
 1292385,0.00592429,0.00150524,0.00029929,-0.00220417,-0.00035604,-0.00
 010527,0.00015599,0.00021183,0.00032474,-0.00008243,0.00007217,-0.0003
 6042,0.00033867,-0.00073676,-0.00025963,-0.00065827,-0.00051261,0.0003
 6209,0.00045178,-0.00038286,0.00020334,-0.00026552,0.00018228,0.000117
 83,-0.00008172,0.00011673,0.00011950,0.00003272,-0.00011170,0.00006551
 ,0.00000493,-0.00001382,-0.00000898,-0.00001142,0.00002786,-0.00004539
 ,0.00000093,-0.00000269,0.00000708,-0.00000818,0.00003920,-0.00000090,
 0.00000637,-0.00001088,-0.00000052,0.00000042,0.00001382,-0.00001975,0
 .00001659,0.00004095,-0.00000645,-0.00000068,-0.00000441,0.00000433,-0
 .00001162,-0.00001545,0.00004461,0.00000928,0.12388593,-0.14436478,0.0
 3810634,-0.13827466,0.15115697,0.00029178,0.00446651,0.01158973,-0.001
 72735,0.00185106,-0.00090267,0.00134953,-0.00158381,0.00027971,0.00003
 115,-0.00013371,-0.00015489,-0.00771173,0.00470161,0.00149995,-0.00020
 854,-0.00226193,-0.00666052,-0.00090947,-0.00072414,0.00040749,0.00094
 812,0.00082798,0.00004270,-0.00010121,0.00038638,0.00086462,-0.0005017
 3,-0.00022209,-0.00009751,0.00071665,-0.00003471,-0.00044939,0.0001414
 3,-0.00029772,-0.00055907,0.00007171,0.00004630,0.00002215,-0.00016654
 ,-0.00009706,0.00002758,0.00001451,-0.00000033,0.00011870,-0.00000982,
 -0.00000137,-0.00003244,-0.00000460,0.00000264,-0.00002508,0.00000470,
 0.00000569,-0.00000225,-0.00001131,0.00000368,0.00000442,-0.00000062,-
 0.00001199,-0.00000022,0.00002552,0.00005991,-0.00002287,-0.00003248,-
 0.00000993,-0.00000208,0.00001159,0.00000411,-0.00001383,0.00001120,-0
 .00004016,0.00003275,-0.04464865,0.03842883,-0.04571653,0.04987044,-0.
 04374753,0.03777194,0.00090585,0.00169667,-0.00016639,0.00013379,0.000
 16058,-0.00005699,0.00017064,0.00007396,-0.00001388,0.00080265,-0.0001
 5856,0.00005988,-0.00227282,0.00041206,-0.00031541,0.00138166,0.000608
 32,-0.00058420,-0.00010931,-0.00028994,0.00007331,0.00003567,-0.000184
 93,0.00008849,-0.00002014,-0.00014948,0.00006828,0.00012699,0.00007145
 ,0.00024709,0.00016072,-0.00008966,-0.00025469,0.00015881,-0.00005551,
 -0.00000510,-0.00007424,-0.00005688,0.00003594,-0.00008334,-0.00006394
 ,0.00000584,0.00005975,-0.00006075,0.00003825,0.00000614,0.00001191,0.
 00000312,-0.00002345,0.00004146,-0.00000761,0.00000268,-0.00000695,0.0
 0000780,-0.00003887,0.00000068,-0.00000409,0.00000942,-0.00000588,-0.0
 0000021,0.00000033,0.00003354,-0.00002439,-0.00004122,0.00000759,0.000
 00116,0.00000037,-0.00001203,0.00001159,0.00001459,-0.00004490,-0.0000
 1159,-0.28255761,-0.10637414,0.02248688,-0.01570936,-0.01061756,0.0025
 4574,0.29696029,-0.00203907,0.00018160,-0.00258336,0.00034100,-0.00018
 762,0.00021511,0.00004250,0.00046590,-0.00019060,0.00111874,-0.0001155
 0,0.00018557,-0.02911219,-0.01082989,0.00324003,0.00186798,-0.00243771
 ,0.00449397,-0.00012344,-0.00021080,-0.00001504,-0.00129805,-0.0009719
 4,0.00013944,0.00088088,-0.00005887,0.00000629,-0.00008842,0.00002756,
 -0.00030240,-0.00014993,0.00018369,0.00026641,-0.00023660,0.00029771,-
 0.00001271,0.00007110,0.00003515,-0.00006042,0.00010063,0.00005430,0.0
 0001146,-0.00001958,-0.00004736,0.00000589,-0.00001654,0.00000675,-0.0
 0001455,-0.00001454,0.00002189,-0.00000336,0.00000377,-0.00000095,-0.0
 0000045,-0.00001316,-0.00000377,-0.00000100,0.00000365,-0.00000024,0.0
 0000099,-0.00003128,-0.00001967,-0.00000985,-0.00000309,0.00001129,0.0
 0000272,0.00000761,0.00000347,-0.00000306,-0.00000011,0.00000779,0.000
 00776,-0.10127945,-0.10044344,0.01674377,0.01493467,0.00865488,-0.0016
 1821,0.11505291,0.10537582,0.00096071,-0.00242858,-0.00742510,0.000456
 94,-0.00116656,0.00047937,-0.00056726,0.00114368,-0.00019658,-0.000357
 71,0.00013641,0.00036258,0.00847190,0.00427420,0.00244961,-0.00095879,
 0.00444047,0.01100030,0.00219363,0.00133639,-0.00062708,-0.00176001,-0
 .00119289,-0.00000144,-0.00025044,-0.00000979,-0.00009591,0.00012254,0
 .00005119,0.00013273,-0.00004196,-0.00008540,-0.00003219,0.00006671,0.
 00002802,0.00031377,-0.00005653,-0.00001181,-0.00005210,0.00001698,-0.
 00007428,-0.00005159,0.00001092,-0.00000637,-0.00006434,-0.00000756,0.
 00000891,-0.00000618,0.00000301,-0.00000291,0.00000643,0.00000173,0.00
 000122,-0.00000338,0.00000261,0.00000027,-0.00000041,-0.00000363,-0.00
 000638,-0.00000375,0.00002432,-0.00000493,0.00001093,0.00000054,-0.000
 00620,-0.00000547,0.00000196,0.00000181,-0.00000501,0.00000131,-0.0000
 0362,0.00000263,0.02101370,0.01664131,-0.03601825,-0.00511682,-0.00255
 975,0.00197763,-0.02422881,-0.02050441,0.02785278\\-0.00000046,-0.0000
 0290,-0.00000561,-0.00000069,0.00000092,-0.00001119,-0.00000019,-0.000
 00955,-0.00000814,0.00000006,-0.00000266,-0.00000252,0.00000075,0.0000
 0675,-0.00000207,-0.00000038,-0.00000091,-0.00000386,-0.00000055,0.000
 00260,-0.00000988,0.,-0.00000766,-0.00000658,0.00000069,0.00000087,0.0
 0000112,0.00000008,0.00000738,0.00000362,0.00000031,-0.00000272,0.0000
 0679,-0.00000041,0.00000075,-0.00000330,-0.00000007,-0.00000628,-0.000
 00574,-0.00000072,0.00000400,-0.00000928,0.00000057,0.00000251,0.00000
 156,-0.00000014,0.00000955,0.00000343,-0.00000044,0.00000317,-0.000004
 61,-0.00000020,-0.00000324,-0.00000714,-0.00000025,0.00000529,-0.00000
 123,-0.00000095,0.00000720,-0.00000987,0.00000015,-0.00000256,0.000008
 76,0.00000069,-0.00000018,0.00001245,0.00000081,-0.00000871,0.00000733
 ,0.00000094,-0.00000235,0.00001329,-0.00000054,-0.00000650,0.00001032,
 0.00000035,0.00000341,0.00001191,0.00000059,0.00000181,0.00001044\\\@
 Job cpu time:  0 days  2 hours 47 minutes  6.6 seconds.
 File lengths (MBytes):  RWF=  30689 Int=      0 D2E=      0 Chk=     21 Scr=      1
 Normal termination of Gaussian 09 at Sat Feb  8 17:03:27 2014.
