 Entering Gaussian System, Link 0=g09
 Initial command:
 /usr/caen/gaussian-09revc/g09/l1.exe /scratch/avioli_flux/hetanjin/scratch/Gau-19811.inp -scrdir=/scratch/avioli_flux/hetanjin/scratch/
 Entering Link 1 = /usr/caen/gaussian-09revc/g09/l1.exe PID=     19812.
  
 Copyright (c) 1988,1990,1992,1993,1995,1998,2003,2009,2011,
            Gaussian, Inc.  All Rights Reserved.
  
 This is part of the Gaussian(R) 09 program.  It is based on
 the Gaussian(R) 03 system (copyright 2003, Gaussian, Inc.),
 the Gaussian(R) 98 system (copyright 1998, Gaussian, Inc.),
 the Gaussian(R) 94 system (copyright 1995, Gaussian, Inc.),
 the Gaussian 92(TM) system (copyright 1992, Gaussian, Inc.),
 the Gaussian 90(TM) system (copyright 1990, Gaussian, Inc.),
 the Gaussian 88(TM) system (copyright 1988, Gaussian, Inc.),
 the Gaussian 86(TM) system (copyright 1986, Carnegie Mellon
 University), and the Gaussian 82(TM) system (copyright 1983,
 Carnegie Mellon University). Gaussian is a federally registered
 trademark of Gaussian, Inc.
  
 This software contains proprietary and confidential information,
 including trade secrets, belonging to Gaussian, Inc.
  
 This software is provided under written license and may be
 used, copied, transmitted, or stored only in accord with that
 written license.
  
 The following legend is applicable only to US Government
 contracts under FAR:
  
                    RESTRICTED RIGHTS LEGEND
  
 Use, reproduction and disclosure by the US Government is
 subject to restrictions as set forth in subparagraphs (a)
 and (c) of the Commercial Computer Software - Restricted
 Rights clause in FAR 52.227-19.
  
 Gaussian, Inc.
 340 Quinnipiac St., Bldg. 40, Wallingford CT 06492
  
  
 ---------------------------------------------------------------
 Warning -- This program may not be used in any manner that
 competes with the business of Gaussian, Inc. or will provide
 assistance to any competitor of Gaussian, Inc.  The licensee
 of this program is prohibited from giving any competitor of
 Gaussian, Inc. access to this program.  By using this program,
 the user acknowledges that Gaussian, Inc. is engaged in the
 business of creating and licensing software in the field of
 computational chemistry and represents and warrants to the
 licensee that it is not a competitor of Gaussian, Inc. and that
 it will not use this program in any manner prohibited above.
 ---------------------------------------------------------------
  

 Cite this work as:
 Gaussian 09, Revision C.01,
 M. J. Frisch, G. W. Trucks, H. B. Schlegel, G. E. Scuseria, 
 M. A. Robb, J. R. Cheeseman, G. Scalmani, V. Barone, B. Mennucci, 
 G. A. Petersson, H. Nakatsuji, M. Caricato, X. Li, H. P. Hratchian, 
 A. F. Izmaylov, J. Bloino, G. Zheng, J. L. Sonnenberg, M. Hada, 
 M. Ehara, K. Toyota, R. Fukuda, J. Hasegawa, M. Ishida, T. Nakajima, 
 Y. Honda, O. Kitao, H. Nakai, T. Vreven, J. A. Montgomery, Jr., 
 J. E. Peralta, F. Ogliaro, M. Bearpark, J. J. Heyd, E. Brothers, 
 K. N. Kudin, V. N. Staroverov, T. Keith, R. Kobayashi, J. Normand, 
 K. Raghavachari, A. Rendell, J. C. Burant, S. S. Iyengar, J. Tomasi, 
 M. Cossi, N. Rega, J. M. Millam, M. Klene, J. E. Knox, J. B. Cross, 
 V. Bakken, C. Adamo, J. Jaramillo, R. Gomperts, R. E. Stratmann, 
 O. Yazyev, A. J. Austin, R. Cammi, C. Pomelli, J. W. Ochterski, 
 R. L. Martin, K. Morokuma, V. G. Zakrzewski, G. A. Voth, 
 P. Salvador, J. J. Dannenberg, S. Dapprich, A. D. Daniels, 
 O. Farkas, J. B. Foresman, J. V. Ortiz, J. Cioslowski, 
 and D. J. Fox, Gaussian, Inc., Wallingford CT, 2010.
 
 ******************************************
 Gaussian 09:  EM64L-G09RevC.01 23-Sep-2011
                21-Feb-2014 
 ******************************************
 %mem=30GB
 %nprocshared=8
 Will use up to    8 processors via shared memory.
 %chk=TS_1_C9H18O_1.chk
 -------------------------------
 #p cbs-qb3 opt=(ts,calcfc) freq
 -------------------------------
 1/5=1,10=4,14=-1,18=20,26=3,38=1/1,3;
 2/9=110,12=2,17=6,18=5,40=1/2;
 3/5=4,6=6,7=700,11=2,16=1,25=1,30=1,71=2,74=-5/1,2,3;
 4//1;
 5/5=2,38=5/2;
 8/6=4,10=90,11=11/1;
 11/6=1,8=1,9=11,15=111,16=1/1,2,10;
 10/6=1,7=6,13=1/2;
 6/7=2,8=2,9=2,10=2,28=1/1;
 7/10=1,18=20,25=1/1,2,3,16;
 1/5=1,10=4,14=-1,18=20/3(2);
 2/9=110/2;
 99//99;
 2/9=110/2;
 3/5=4,6=6,7=700,11=2,16=1,25=1,30=1,71=1,74=-5/1,2,3;
 4/5=5,16=3/1;
 5/5=2,38=5/2;
 7//1,2,3,16;
 1/5=1,14=-1,18=20/3(-5);
 2/9=110/2;
 6/7=2,8=2,9=2,10=2,19=2,28=1/1;
 99/9=1/99;
 Leave Link    1 at Fri Feb 21 12:51:29 2014, MaxMem= 4026531840 cpu:      12.9
 (Enter /usr/caen/gaussian-09revc/g09/l101.exe)
 -------------------------------------------
 TS_1_C9H18O_1 using cbs-qb3 to calc. energy
 -------------------------------------------
 Charge =  0 Multiplicity = 2
 Symbolic Z-Matrix:
 C                    -3.14646  -1.78467  -0.02689 
 H                    -2.81501  -2.82357   0.04992 
 H                    -3.3512   -1.56745  -1.07825 
 H                    -4.08199  -1.68565   0.53023 
 C                    -2.05212  -0.83973   0.52161 
 H                    -1.87294  -1.09959   1.57286 
 C                    -0.7346   -0.99538  -0.26223 
 H                    -0.56684  -2.0657   -0.42768 
 H                    -0.85968  -0.54623  -1.25321 
 C                     0.50086  -0.40318   0.42762 
 H                     0.61887  -0.8641    1.41765 
 H                     0.34917   0.66673   0.59818 
 C                     1.7849   -0.61702  -0.38376 
 H                     1.68594  -0.11528  -1.35584 
 H                     1.88509  -1.68765  -0.60381 
 C                     3.08125  -0.13687   0.29624 
 H                     3.1377   -0.62138   1.28118 
 C                     4.30783  -0.58028  -0.51371 
 H                     4.29916  -0.12917  -1.51215 
 H                     5.23787  -0.279    -0.0226 
 H                     4.3323   -1.66684  -0.64001 
 C                    -2.59666   0.57007   0.52264 
 H                    -3.36406   0.82237   1.26124 
 H                    -1.70794   1.55051   0.68423 
 C                     3.10383   1.38284   0.51577 
 H                     4.03897   1.69367   0.99094 
 H                     3.0242    1.91416  -0.43919 
 H                     2.28391   1.72117   1.1539 
 O                    -2.84051   1.15137  -0.71882 
 O                    -1.88028   2.24966  -0.3801 
 
 NAtoms=     30 NQM=        0 NQMF=       0 NMMI=     30 NMMIF=      0
                NMic=       0 NMicF=      0.
                    Isotopes and Nuclear Properties:
 (Nuclear quadrupole moments (NQMom) in fm**2, nuclear magnetic moments (NMagM)
  in nuclear magnetons)

  Atom         1           2           3           4           5           6           7           8           9          10
 IAtWgt=          12           1           1           1          12           1          12           1           1          12
 AtmWgt=  12.0000000   1.0078250   1.0078250   1.0078250  12.0000000   1.0078250  12.0000000   1.0078250   1.0078250  12.0000000
 NucSpn=           0           1           1           1           0           1           0           1           1           0
 AtZEff=   0.0000000   0.0000000   0.0000000   0.0000000   0.0000000   0.0000000   0.0000000   0.0000000   0.0000000   0.0000000
 NQMom=    0.0000000   0.0000000   0.0000000   0.0000000   0.0000000   0.0000000   0.0000000   0.0000000   0.0000000   0.0000000
 NMagM=    0.0000000   2.7928460   2.7928460   2.7928460   0.0000000   2.7928460   0.0000000   2.7928460   2.7928460   0.0000000

  Atom        11          12          13          14          15          16          17          18          19          20
 IAtWgt=           1           1          12           1           1          12           1          12           1           1
 AtmWgt=   1.0078250   1.0078250  12.0000000   1.0078250   1.0078250  12.0000000   1.0078250  12.0000000   1.0078250   1.0078250
 NucSpn=           1           1           0           1           1           0           1           0           1           1
 AtZEff=   0.0000000   0.0000000   0.0000000   0.0000000   0.0000000   0.0000000   0.0000000   0.0000000   0.0000000   0.0000000
 NQMom=    0.0000000   0.0000000   0.0000000   0.0000000   0.0000000   0.0000000   0.0000000   0.0000000   0.0000000   0.0000000
 NMagM=    2.7928460   2.7928460   0.0000000   2.7928460   2.7928460   0.0000000   2.7928460   0.0000000   2.7928460   2.7928460

  Atom        21          22          23          24          25          26          27          28          29          30
 IAtWgt=           1          12           1           1          12           1           1           1          16          16
 AtmWgt=   1.0078250  12.0000000   1.0078250   1.0078250  12.0000000   1.0078250   1.0078250   1.0078250  15.9949146  15.9949146
 NucSpn=           1           0           1           1           0           1           1           1           0           0
 AtZEff=   0.0000000   0.0000000   0.0000000   0.0000000   0.0000000   0.0000000   0.0000000   0.0000000   0.0000000   0.0000000
 NQMom=    0.0000000   0.0000000   0.0000000   0.0000000   0.0000000   0.0000000   0.0000000   0.0000000   0.0000000   0.0000000
 NMagM=    2.7928460   0.0000000   2.7928460   2.7928460   0.0000000   2.7928460   2.7928460   2.7928460   0.0000000   0.0000000
 Leave Link  101 at Fri Feb 21 12:51:29 2014, MaxMem= 4026531840 cpu:       1.8
 (Enter /usr/caen/gaussian-09revc/g09/l103.exe)

 GradGradGradGradGradGradGradGradGradGradGradGradGradGradGradGradGradGrad
 Berny optimization.
 Initialization pass.
                           ----------------------------
                           !    Initial Parameters    !
                           ! (Angstroms and Degrees)  !
 --------------------------                            --------------------------
 ! Name  Definition              Value          Derivative Info.                !
 --------------------------------------------------------------------------------
 ! R1    R(1,2)                  1.0932         calculate D2E/DX2 analytically  !
 ! R2    R(1,3)                  1.0929         calculate D2E/DX2 analytically  !
 ! R3    R(1,4)                  1.0933         calculate D2E/DX2 analytically  !
 ! R4    R(1,5)                  1.5464         calculate D2E/DX2 analytically  !
 ! R5    R(5,6)                  1.0976         calculate D2E/DX2 analytically  !
 ! R6    R(5,7)                  1.5409         calculate D2E/DX2 analytically  !
 ! R7    R(5,22)                 1.5113         calculate D2E/DX2 analytically  !
 ! R8    R(7,8)                  1.096          calculate D2E/DX2 analytically  !
 ! R9    R(7,9)                  1.0952         calculate D2E/DX2 analytically  !
 ! R10   R(7,10)                 1.5339         calculate D2E/DX2 analytically  !
 ! R11   R(10,11)                1.0984         calculate D2E/DX2 analytically  !
 ! R12   R(10,12)                1.094          calculate D2E/DX2 analytically  !
 ! R13   R(10,13)                1.5339         calculate D2E/DX2 analytically  !
 ! R14   R(13,14)                1.0984         calculate D2E/DX2 analytically  !
 ! R15   R(13,15)                1.0976         calculate D2E/DX2 analytically  !
 ! R16   R(13,16)                1.5406         calculate D2E/DX2 analytically  !
 ! R17   R(16,17)                1.0991         calculate D2E/DX2 analytically  !
 ! R18   R(16,18)                1.5353         calculate D2E/DX2 analytically  !
 ! R19   R(16,25)                1.5357         calculate D2E/DX2 analytically  !
 ! R20   R(18,19)                1.0956         calculate D2E/DX2 analytically  !
 ! R21   R(18,20)                1.094          calculate D2E/DX2 analytically  !
 ! R22   R(18,21)                1.0942         calculate D2E/DX2 analytically  !
 ! R23   R(22,23)                1.0946         calculate D2E/DX2 analytically  !
 ! R24   R(22,24)                1.3331         calculate D2E/DX2 analytically  !
 ! R25   R(22,29)                1.3923         calculate D2E/DX2 analytically  !
 ! R26   R(25,26)                1.094          calculate D2E/DX2 analytically  !
 ! R27   R(25,27)                1.0957         calculate D2E/DX2 analytically  !
 ! R28   R(25,28)                1.0927         calculate D2E/DX2 analytically  !
 ! R29   R(29,30)                1.4977         calculate D2E/DX2 analytically  !
 ! A1    A(2,1,3)              108.2562         calculate D2E/DX2 analytically  !
 ! A2    A(2,1,4)              108.0407         calculate D2E/DX2 analytically  !
 ! A3    A(2,1,5)              109.9522         calculate D2E/DX2 analytically  !
 ! A4    A(3,1,4)              108.1727         calculate D2E/DX2 analytically  !
 ! A5    A(3,1,5)              110.63           calculate D2E/DX2 analytically  !
 ! A6    A(4,1,5)              111.6817         calculate D2E/DX2 analytically  !
 ! A7    A(1,5,6)              108.0931         calculate D2E/DX2 analytically  !
 ! A8    A(1,5,7)              111.2797         calculate D2E/DX2 analytically  !
 ! A9    A(1,5,22)             108.3777         calculate D2E/DX2 analytically  !
 ! A10   A(6,5,7)              108.8867         calculate D2E/DX2 analytically  !
 ! A11   A(6,5,22)             106.2015         calculate D2E/DX2 analytically  !
 ! A12   A(7,5,22)             113.7434         calculate D2E/DX2 analytically  !
 ! A13   A(5,7,8)              107.8376         calculate D2E/DX2 analytically  !
 ! A14   A(5,7,9)              108.7359         calculate D2E/DX2 analytically  !
 ! A15   A(5,7,10)             114.8905         calculate D2E/DX2 analytically  !
 ! A16   A(8,7,9)              106.3442         calculate D2E/DX2 analytically  !
 ! A17   A(8,7,10)             108.762          calculate D2E/DX2 analytically  !
 ! A18   A(9,7,10)             109.9126         calculate D2E/DX2 analytically  !
 ! A19   A(7,10,11)            109.2614         calculate D2E/DX2 analytically  !
 ! A20   A(7,10,12)            109.6338         calculate D2E/DX2 analytically  !
 ! A21   A(7,10,13)            112.4898         calculate D2E/DX2 analytically  !
 ! A22   A(11,10,12)           106.5443         calculate D2E/DX2 analytically  !
 ! A23   A(11,10,13)           109.1676         calculate D2E/DX2 analytically  !
 ! A24   A(12,10,13)           109.5653         calculate D2E/DX2 analytically  !
 ! A25   A(10,13,14)           109.2104         calculate D2E/DX2 analytically  !
 ! A26   A(10,13,15)           108.5692         calculate D2E/DX2 analytically  !
 ! A27   A(10,13,16)           115.3074         calculate D2E/DX2 analytically  !
 ! A28   A(14,13,15)           106.0429         calculate D2E/DX2 analytically  !
 ! A29   A(14,13,16)           108.9093         calculate D2E/DX2 analytically  !
 ! A30   A(15,13,16)           108.402          calculate D2E/DX2 analytically  !
 ! A31   A(13,16,17)           107.5399         calculate D2E/DX2 analytically  !
 ! A32   A(13,16,18)           110.4505         calculate D2E/DX2 analytically  !
 ! A33   A(13,16,25)           112.5752         calculate D2E/DX2 analytically  !
 ! A34   A(17,16,18)           107.7227         calculate D2E/DX2 analytically  !
 ! A35   A(17,16,25)           107.9009         calculate D2E/DX2 analytically  !
 ! A36   A(18,16,25)           110.4557         calculate D2E/DX2 analytically  !
 ! A37   A(16,18,19)           110.8249         calculate D2E/DX2 analytically  !
 ! A38   A(16,18,20)           111.2725         calculate D2E/DX2 analytically  !
 ! A39   A(16,18,21)           111.4425         calculate D2E/DX2 analytically  !
 ! A40   A(19,18,20)           107.6022         calculate D2E/DX2 analytically  !
 ! A41   A(19,18,21)           107.6899         calculate D2E/DX2 analytically  !
 ! A42   A(20,18,21)           107.8353         calculate D2E/DX2 analytically  !
 ! A43   A(5,22,23)            117.9103         calculate D2E/DX2 analytically  !
 ! A44   A(5,22,24)            116.4831         calculate D2E/DX2 analytically  !
 ! A45   A(5,22,29)            116.8692         calculate D2E/DX2 analytically  !
 ! A46   A(23,22,24)           102.4785         calculate D2E/DX2 analytically  !
 ! A47   A(23,22,29)           112.4975         calculate D2E/DX2 analytically  !
 ! A48   A(24,22,29)            85.2837         calculate D2E/DX2 analytically  !
 ! A49   A(16,25,26)           110.844          calculate D2E/DX2 analytically  !
 ! A50   A(16,25,27)           110.745          calculate D2E/DX2 analytically  !
 ! A51   A(16,25,28)           112.2637         calculate D2E/DX2 analytically  !
 ! A52   A(26,25,27)           107.6312         calculate D2E/DX2 analytically  !
 ! A53   A(26,25,28)           107.4447         calculate D2E/DX2 analytically  !
 ! A54   A(27,25,28)           107.7164         calculate D2E/DX2 analytically  !
 ! A55   A(22,29,30)            89.5543         calculate D2E/DX2 analytically  !
 ! D1    D(2,1,5,6)            -59.9256         calculate D2E/DX2 analytically  !
 ! D2    D(2,1,5,7)             59.5926         calculate D2E/DX2 analytically  !
 ! D3    D(2,1,5,22)          -174.6244         calculate D2E/DX2 analytically  !
 ! D4    D(3,1,5,6)           -179.4487         calculate D2E/DX2 analytically  !
 ! D5    D(3,1,5,7)            -59.9305         calculate D2E/DX2 analytically  !
 ! D6    D(3,1,5,22)            65.8525         calculate D2E/DX2 analytically  !
 ! D7    D(4,1,5,6)             60.0005         calculate D2E/DX2 analytically  !
 ! D8    D(4,1,5,7)            179.5187         calculate D2E/DX2 analytically  !
 ! D9    D(4,1,5,22)           -54.6983         calculate D2E/DX2 analytically  !
 ! D10   D(1,5,7,8)            -42.5787         calculate D2E/DX2 analytically  !
 ! D11   D(1,5,7,9)             72.3382         calculate D2E/DX2 analytically  !
 ! D12   D(1,5,7,10)          -164.0306         calculate D2E/DX2 analytically  !
 ! D13   D(6,5,7,8)             76.4662         calculate D2E/DX2 analytically  !
 ! D14   D(6,5,7,9)           -168.6168         calculate D2E/DX2 analytically  !
 ! D15   D(6,5,7,10)           -44.9857         calculate D2E/DX2 analytically  !
 ! D16   D(22,5,7,8)          -165.3273         calculate D2E/DX2 analytically  !
 ! D17   D(22,5,7,9)           -50.4104         calculate D2E/DX2 analytically  !
 ! D18   D(22,5,7,10)           73.2208         calculate D2E/DX2 analytically  !
 ! D19   D(1,5,22,23)           71.6846         calculate D2E/DX2 analytically  !
 ! D20   D(1,5,22,24)         -165.8299         calculate D2E/DX2 analytically  !
 ! D21   D(1,5,22,29)          -67.2353         calculate D2E/DX2 analytically  !
 ! D22   D(6,5,22,23)          -44.2481         calculate D2E/DX2 analytically  !
 ! D23   D(6,5,22,24)           78.2374         calculate D2E/DX2 analytically  !
 ! D24   D(6,5,22,29)          176.832          calculate D2E/DX2 analytically  !
 ! D25   D(7,5,22,23)         -163.9879         calculate D2E/DX2 analytically  !
 ! D26   D(7,5,22,24)          -41.5024         calculate D2E/DX2 analytically  !
 ! D27   D(7,5,22,29)           57.0922         calculate D2E/DX2 analytically  !
 ! D28   D(5,7,10,11)           57.2644         calculate D2E/DX2 analytically  !
 ! D29   D(5,7,10,12)          -59.154          calculate D2E/DX2 analytically  !
 ! D30   D(5,7,10,13)          178.6705         calculate D2E/DX2 analytically  !
 ! D31   D(8,7,10,11)          -63.6827         calculate D2E/DX2 analytically  !
 ! D32   D(8,7,10,12)          179.8989         calculate D2E/DX2 analytically  !
 ! D33   D(8,7,10,13)           57.7234         calculate D2E/DX2 analytically  !
 ! D34   D(9,7,10,11)         -179.7322         calculate D2E/DX2 analytically  !
 ! D35   D(9,7,10,12)           63.8494         calculate D2E/DX2 analytically  !
 ! D36   D(9,7,10,13)          -58.3261         calculate D2E/DX2 analytically  !
 ! D37   D(7,10,13,14)          61.2184         calculate D2E/DX2 analytically  !
 ! D38   D(7,10,13,15)         -53.9817         calculate D2E/DX2 analytically  !
 ! D39   D(7,10,13,16)        -175.7997         calculate D2E/DX2 analytically  !
 ! D40   D(11,10,13,14)       -177.3221         calculate D2E/DX2 analytically  !
 ! D41   D(11,10,13,15)         67.4779         calculate D2E/DX2 analytically  !
 ! D42   D(11,10,13,16)        -54.3401         calculate D2E/DX2 analytically  !
 ! D43   D(12,10,13,14)        -60.9959         calculate D2E/DX2 analytically  !
 ! D44   D(12,10,13,15)       -176.196          calculate D2E/DX2 analytically  !
 ! D45   D(12,10,13,16)         61.986          calculate D2E/DX2 analytically  !
 ! D46   D(10,13,16,17)         54.6765         calculate D2E/DX2 analytically  !
 ! D47   D(10,13,16,18)        171.9725         calculate D2E/DX2 analytically  !
 ! D48   D(10,13,16,25)        -64.0425         calculate D2E/DX2 analytically  !
 ! D49   D(14,13,16,17)        177.8183         calculate D2E/DX2 analytically  !
 ! D50   D(14,13,16,18)        -64.8857         calculate D2E/DX2 analytically  !
 ! D51   D(14,13,16,25)         59.0993         calculate D2E/DX2 analytically  !
 ! D52   D(15,13,16,17)        -67.2315         calculate D2E/DX2 analytically  !
 ! D53   D(15,13,16,18)         50.0646         calculate D2E/DX2 analytically  !
 ! D54   D(15,13,16,25)        174.0496         calculate D2E/DX2 analytically  !
 ! D55   D(13,16,18,19)         62.4716         calculate D2E/DX2 analytically  !
 ! D56   D(13,16,18,20)       -177.8398         calculate D2E/DX2 analytically  !
 ! D57   D(13,16,18,21)        -57.4402         calculate D2E/DX2 analytically  !
 ! D58   D(17,16,18,19)        179.6548         calculate D2E/DX2 analytically  !
 ! D59   D(17,16,18,20)        -60.6566         calculate D2E/DX2 analytically  !
 ! D60   D(17,16,18,21)         59.743          calculate D2E/DX2 analytically  !
 ! D61   D(25,16,18,19)        -62.7251         calculate D2E/DX2 analytically  !
 ! D62   D(25,16,18,20)         56.9635         calculate D2E/DX2 analytically  !
 ! D63   D(25,16,18,21)        177.3631         calculate D2E/DX2 analytically  !
 ! D64   D(13,16,25,26)       -179.4737         calculate D2E/DX2 analytically  !
 ! D65   D(13,16,25,27)        -60.0817         calculate D2E/DX2 analytically  !
 ! D66   D(13,16,25,28)         60.3612         calculate D2E/DX2 analytically  !
 ! D67   D(17,16,25,26)         62.0188         calculate D2E/DX2 analytically  !
 ! D68   D(17,16,25,27)       -178.5891         calculate D2E/DX2 analytically  !
 ! D69   D(17,16,25,28)        -58.1463         calculate D2E/DX2 analytically  !
 ! D70   D(18,16,25,26)        -55.4915         calculate D2E/DX2 analytically  !
 ! D71   D(18,16,25,27)         63.9005         calculate D2E/DX2 analytically  !
 ! D72   D(18,16,25,28)       -175.6566         calculate D2E/DX2 analytically  !
 ! D73   D(5,22,29,30)        -120.7989         calculate D2E/DX2 analytically  !
 ! D74   D(23,22,29,30)         98.1415         calculate D2E/DX2 analytically  !
 ! D75   D(24,22,29,30)         -3.4246         calculate D2E/DX2 analytically  !
 --------------------------------------------------------------------------------
 Trust Radius=3.00D-01 FncErr=1.00D-07 GrdErr=1.00D-06
 Number of steps in this run=    169 maximum allowed number of steps=    180.
 Search for a saddle point of order  1.
 GradGradGradGradGradGradGradGradGradGradGradGradGradGradGradGradGradGrad

 Leave Link  103 at Fri Feb 21 12:51:29 2014, MaxMem= 4026531840 cpu:       0.2
 (Enter /usr/caen/gaussian-09revc/g09/l202.exe)
                          Input orientation:                          
 ---------------------------------------------------------------------
 Center     Atomic      Atomic             Coordinates (Angstroms)
 Number     Number       Type             X           Y           Z
 ---------------------------------------------------------------------
      1          6           0       -3.146458   -1.784668   -0.026887
      2          1           0       -2.815013   -2.823568    0.049918
      3          1           0       -3.351204   -1.567450   -1.078248
      4          1           0       -4.081987   -1.685653    0.530230
      5          6           0       -2.052123   -0.839727    0.521607
      6          1           0       -1.872944   -1.099591    1.572857
      7          6           0       -0.734603   -0.995376   -0.262229
      8          1           0       -0.566838   -2.065701   -0.427677
      9          1           0       -0.859676   -0.546226   -1.253210
     10          6           0        0.500857   -0.403179    0.427618
     11          1           0        0.618869   -0.864097    1.417652
     12          1           0        0.349169    0.666732    0.598179
     13          6           0        1.784895   -0.617015   -0.383755
     14          1           0        1.685937   -0.115280   -1.355843
     15          1           0        1.885087   -1.687645   -0.603809
     16          6           0        3.081248   -0.136874    0.296236
     17          1           0        3.137701   -0.621377    1.281182
     18          6           0        4.307828   -0.580282   -0.513714
     19          1           0        4.299162   -0.129168   -1.512145
     20          1           0        5.237865   -0.278999   -0.022599
     21          1           0        4.332295   -1.666843   -0.640013
     22          6           0       -2.596663    0.570070    0.522637
     23          1           0       -3.364063    0.822368    1.261239
     24          1           0       -1.707941    1.550511    0.684225
     25          6           0        3.103829    1.382841    0.515772
     26          1           0        4.038975    1.693670    0.990941
     27          1           0        3.024197    1.914160   -0.439189
     28          1           0        2.283907    1.721166    1.153896
     29          8           0       -2.840511    1.151372   -0.718818
     30          8           0       -1.880284    2.249659   -0.380095
 ---------------------------------------------------------------------
                    Distance matrix (angstroms):
                    1          2          3          4          5
     1  C    0.000000
     2  H    1.093192   0.000000
     3  H    1.092916   1.771466   0.000000
     4  H    1.093343   1.769399   1.770654   0.000000
     5  C    1.546392   2.177181   2.185573   2.199094   0.000000
     6  H    2.156467   2.485746   3.071238   2.512053   1.097616
     7  C    2.548610   2.787082   2.799957   3.508483   1.540936
     8  H    2.625653   2.420072   2.902446   3.663099   2.147143
     9  H    2.875235   3.272273   2.698374   3.855158   2.158251
    10  C    3.926575   4.122613   4.296689   4.760013   2.591740
    11  H    4.136645   4.183512   4.741909   4.853918   2.817390
    12  H    4.315029   4.742872   4.636242   5.017318   2.835751
    13  C    5.080257   5.120166   5.269266   6.033047   3.948669
    14  H    5.282520   5.437788   5.249633   6.268356   4.245319
    15  H    5.065441   4.879408   5.259114   6.073880   4.181764
    16  C    6.450113   6.484203   6.731433   7.332490   5.186164
    17  H    6.523415   6.465328   6.969064   7.336246   5.249658
    18  C    7.566632   7.488984   7.742995   8.526468   6.448890
    19  H    7.770710   7.766036   7.796475   8.765706   6.706703
    20  H    8.518446   8.445646   8.749092   9.441607   7.331746
    21  H    7.504769   7.273103   7.696628   8.495291   6.541733
    22  C    2.479726   3.433354   2.775096   2.700839   1.511308
    23  H    2.916035   3.880928   3.344338   2.709236   2.242945
    24  H    3.701139   4.556371   3.940597   4.016537   2.420360
    25  C    7.028064   7.276234   7.274103   7.813566   5.614596
    26  H    8.047686   8.262452   8.338537   8.808070   6.613611
    27  H    7.206130   7.535361   7.292170   8.024729   5.854575
    28  H    6.570691   6.918985   6.895791   7.247067   5.075344
    29  O    3.031947   4.048673   2.789622   3.339176   2.474810
    30  O    4.243082   5.176511   4.149861   4.600312   3.222872
                    6          7          8          9         10
     6  H    0.000000
     7  C    2.161995   0.000000
     8  H    2.577095   1.095953   0.000000
     9  H    3.052799   1.095181   1.753871   0.000000
    10  C    2.726077   1.533932   2.153017   2.167186   0.000000
    11  H    2.507724   2.161278   2.500998   3.069306   1.098426
    12  H    3.001280   2.162745   3.059026   2.521947   1.093988
    13  C    4.176242   2.550646   2.762475   2.784730   1.533886
    14  H    4.712938   2.798138   3.120998   2.583872   2.160563
    15  H    4.382520   2.731060   2.487144   3.042743   2.151694
    16  C    5.205824   3.950902   4.189625   4.254319   2.597421
    17  H    5.041857   4.185299   4.327803   4.733689   2.780131
    18  C    6.544112   5.065734   5.096689   5.220260   3.925621
    19  H    6.968059   5.258460   5.348288   5.182142   4.273743
    20  H    7.333652   6.020049   6.086951   6.226220   4.759975
    21  H    6.612379   5.125138   4.919927   5.346808   4.173320
    22  C    2.101071   2.556150   3.459852   2.723394   3.248211
    23  H    2.452441   3.541074   4.360946   3.803611   4.139384
    24  H    2.799988   2.885256   3.951637   2.978173   2.959990
    25  C    5.661110   4.582004   5.124093   4.749734   3.158022
    26  H    6.564428   5.620360   6.112190   5.835249   4.151191
    27  H    6.092045   4.756605   5.360500   4.669111   3.533930
    28  H    5.040993   4.300746   4.996847   4.562602   2.866983
    29  O    3.354817   3.041685   3.950179   2.662916   3.859493
    30  O    3.877054   3.443360   4.511068   3.101765   3.655104
                   11         12         13         14         15
    11  H    0.000000
    12  H    1.757189   0.000000
    13  C    2.160031   2.161830   0.000000
    14  H    3.064578   2.493330   1.098401   0.000000
    15  H    2.523459   3.057272   1.097593   1.754294   0.000000
    16  C    2.801738   2.863775   1.540602   2.162573   2.155405
    17  H    2.534177   3.146685   2.145255   3.052483   2.501831
    18  C    4.173625   4.296781   2.526545   2.792798   2.665341
    19  H    4.761133   4.548557   2.798713   2.617932   3.013583
    20  H    4.873580   5.017880   3.488222   3.797438   3.682826
    21  H    4.320639   4.779538   2.767138   3.150075   2.447564
    22  C    3.632841   2.948385   4.629122   4.726421   5.143174
    23  H    4.328092   3.775177   5.593711   5.764616   6.110004
    24  H    3.432534   2.240574   4.247194   4.295945   5.005451
    25  C    3.469459   2.847412   2.558937   2.785270   3.488077
    26  H    4.292013   3.850134   3.508551   3.783713   4.314598
    27  H    4.117302   3.128575   2.818828   2.598042   3.781226
    28  H    3.086341   2.272414   2.842617   3.166843   3.855979
    29  O    4.538053   3.484740   4.963249   4.743305   5.514029
    30  O    4.378714   2.903987   4.653103   4.388958   5.452562
                   16         17         18         19         20
    16  C    0.000000
    17  H    1.099113   0.000000
    18  C    1.535294   2.143021   0.000000
    19  H    2.180279   3.064953   1.095647   0.000000
    20  H    2.184686   2.495547   1.094045   1.767020   0.000000
    21  H    2.186890   2.492197   1.094150   1.768094   1.768437
    22  C    5.726229   5.905749   7.075968   7.223688   7.899242
    23  H    6.587367   6.660160   7.998487   8.205004   8.766665
    24  H    5.092557   5.343566   6.493444   6.612915   7.217405
    25  C    1.535656   2.145668   2.522560   2.797756   2.757837
    26  H    2.179621   2.501195   2.739914   3.107390   2.521116
    27  H    2.179643   3.066188   2.806333   2.636657   3.143854
    28  H    2.196280   2.496532   3.489103   3.820048   3.756417
    29  O    6.144684   6.548409   7.357951   7.296854   8.233519
    30  O    5.547050   6.015219   6.805817   6.717582   7.562404
                   21         22         23         24         25
    21  H    0.000000
    22  C    7.373330   0.000000
    23  H    8.309324   1.094573   0.000000
    24  H    6.970611   1.333117   1.898915   0.000000
    25  C    3.485045   5.758147   6.534790   4.817636   0.000000
    26  H    3.746878   6.746368   7.459035   5.756875   1.094028
    27  H    3.817726   5.858819   6.700249   4.877236   1.095715
    28  H    4.346563   5.054055   5.720046   4.023004   1.092675
    29  O    7.706990   1.392331   2.074362   1.846769   6.075604
    30  O    7.348652   2.036945   2.633009   1.285024   5.137639
                   26         27         28         29         30
    26  H    0.000000
    27  H    1.767388   0.000000
    28  H    1.762831   1.767257   0.000000
    29  O    7.109479   5.920713   5.485561   0.000000
    30  O    6.101352   4.916298   4.469107   1.497666   0.000000
 Stoichiometry    C9H19O2(2)
 Framework group  C1[X(C9H19O2)]
 Deg. of freedom    84
 Full point group                 C1      NOp   1
 Largest Abelian subgroup         C1      NOp   1
 Largest concise Abelian subgroup C1      NOp   1
                         Standard orientation:                         
 ---------------------------------------------------------------------
 Center     Atomic      Atomic             Coordinates (Angstroms)
 Number     Number       Type             X           Y           Z
 ---------------------------------------------------------------------
      1          6           0       -3.146458   -1.784668   -0.026887
      2          1           0       -2.815013   -2.823568    0.049918
      3          1           0       -3.351204   -1.567450   -1.078248
      4          1           0       -4.081987   -1.685653    0.530230
      5          6           0       -2.052123   -0.839727    0.521607
      6          1           0       -1.872944   -1.099591    1.572857
      7          6           0       -0.734603   -0.995376   -0.262229
      8          1           0       -0.566838   -2.065701   -0.427677
      9          1           0       -0.859676   -0.546226   -1.253210
     10          6           0        0.500857   -0.403179    0.427618
     11          1           0        0.618869   -0.864097    1.417652
     12          1           0        0.349169    0.666732    0.598179
     13          6           0        1.784895   -0.617015   -0.383755
     14          1           0        1.685937   -0.115280   -1.355843
     15          1           0        1.885087   -1.687645   -0.603809
     16          6           0        3.081248   -0.136874    0.296236
     17          1           0        3.137701   -0.621377    1.281182
     18          6           0        4.307828   -0.580282   -0.513714
     19          1           0        4.299162   -0.129168   -1.512145
     20          1           0        5.237865   -0.278999   -0.022599
     21          1           0        4.332295   -1.666843   -0.640013
     22          6           0       -2.596663    0.570070    0.522637
     23          1           0       -3.364063    0.822368    1.261239
     24          1           0       -1.707941    1.550511    0.684225
     25          6           0        3.103829    1.382841    0.515772
     26          1           0        4.038975    1.693670    0.990941
     27          1           0        3.024197    1.914160   -0.439189
     28          1           0        2.283907    1.721166    1.153896
     29          8           0       -2.840511    1.151372   -0.718818
     30          8           0       -1.880284    2.249659   -0.380095
 ---------------------------------------------------------------------
 Rotational constants (GHZ):      1.7707155      0.4387974      0.3770210
 Leave Link  202 at Fri Feb 21 12:51:30 2014, MaxMem= 4026531840 cpu:       0.5
 (Enter /usr/caen/gaussian-09revc/g09/l301.exe)
 Standard basis: 6-311G(2d,d,p) (5D, 7F)
 Ernie: Thresh=  0.10000D-02 Tol=  0.10000D-05 Strict=F.
 There are   312 symmetry adapted basis functions of A   symmetry.
 Integral buffers will be    131072 words long.
 Raffenetti 2 integral format.
 Two-electron integral symmetry is turned on.
   312 basis functions,   504 primitive gaussians,   323 cartesian basis functions
    45 alpha electrons       44 beta electrons
       nuclear repulsion energy       648.1423973100 Hartrees.
 IExCor=  402 DFT=T Ex+Corr=B3LYP ExCW=0 ScaHFX=  0.200000
 ScaDFX=  0.800000  0.720000  1.000000  0.810000 ScalE2=  1.000000  1.000000
 IRadAn=      0 IRanWt=     -1 IRanGd=            0 ICorTp=0
 NAtoms=   30 NActive=   30 NUniq=   30 SFac= 1.00D+00 NAtFMM=   60 NAOKFM=F Big=F
 Leave Link  301 at Fri Feb 21 12:51:30 2014, MaxMem= 4026531840 cpu:       0.7
 (Enter /usr/caen/gaussian-09revc/g09/l302.exe)
 NPDir=0 NMtPBC=     1 NCelOv=     1 NCel=       1 NClECP=     1 NCelD=      1
         NCelK=      1 NCelE2=     1 NClLst=     1 CellRange=     0.0.
 One-electron integrals computed using PRISM.
 NBasis=   312 RedAO= T  NBF=   312
 NBsUse=   312 1.00D-06 NBFU=   312
 Precomputing XC quadrature grid using
 IXCGrd= 2 IRadAn=           0 IRanWt=          -1 IRanGd=           0 AccXCQ= 0.00D+00.
 NRdTot=    1912 NPtTot=      243844 NUsed=      257631 NTot=      257663
 NSgBfM=   323   323   323   323   323 NAtAll=    30    30.
 Leave Link  302 at Fri Feb 21 12:51:32 2014, MaxMem= 4026531840 cpu:       8.8
 (Enter /usr/caen/gaussian-09revc/g09/l303.exe)
 DipDrv:  MaxL=1.
 Leave Link  303 at Fri Feb 21 12:51:33 2014, MaxMem= 4026531840 cpu:       2.1
 (Enter /usr/caen/gaussian-09revc/g09/l401.exe)
 Harris functional with IExCor=  402 diagonalized for initial guess.
 ExpMin= 1.03D-01 ExpMax= 8.59D+03 ExpMxC= 1.30D+03 IAcc=1 IRadAn=         1 AccDes= 0.00D+00
 HarFok:  IExCor=  402 AccDes= 0.00D+00 IRadAn=         1 IDoV= 1
 ScaDFX=  1.000000  1.000000  1.000000  1.000000
 FoFCou: FMM=F IPFlag=           0 FMFlag=      100000 FMFlg1=           0
         NFxFlg=           0 DoJE=T BraDBF=F KetDBF=T FulRan=T
         Omega=  0.000000  0.000000  1.000000  0.000000  0.000000 ICntrl=     500 IOpCl=  0
         NMat0=    1 NMatS0=    1 NMatT0=    0 NMatD0=    1 NMtDS0=    0 NMtDT0=    0
         I1Cent=           4 NGrid=           0.
 Petite list used in FoFCou.
 Harris En= -504.852831807412    
 Initial guess orbital symmetries:
 Alpha Orbitals:
       Occupied  (A) (A) (A) (A) (A) (A) (A) (A) (A) (A) (A) (A)
                 (A) (A) (A) (A) (A) (A) (A) (A) (A) (A) (A) (A)
                 (A) (A) (A) (A) (A) (A) (A) (A) (A) (A) (A) (A)
                 (A) (A) (A) (A) (A) (A) (A) (A) (A)
       Virtual   (A) (A) (A) (A) (A) (A) (A) (A) (A) (A) (A) (A)
                 (A) (A) (A) (A) (A) (A) (A) (A) (A) (A) (A) (A)
                 (A) (A) (A) (A) (A) (A) (A) (A) (A) (A) (A) (A)
                 (A) (A) (A) (A) (A) (A) (A) (A) (A) (A) (A) (A)
                 (A) (A) (A) (A) (A) (A) (A) (A) (A) (A) (A) (A)
                 (A) (A) (A) (A) (A) (A) (A) (A) (A) (A) (A) (A)
                 (A) (A) (A) (A) (A) (A) (A) (A) (A) (A) (A) (A)
                 (A) (A) (A) (A) (A) (A) (A) (A) (A) (A) (A) (A)
                 (A) (A) (A) (A) (A) (A) (A) (A) (A) (A) (A) (A)
                 (A) (A) (A) (A) (A) (A) (A) (A) (A) (A) (A) (A)
                 (A) (A) (A) (A) (A) (A) (A) (A) (A) (A) (A) (A)
                 (A) (A) (A) (A) (A) (A) (A) (A) (A) (A) (A) (A)
                 (A) (A) (A) (A) (A) (A) (A) (A) (A) (A) (A) (A)
                 (A) (A) (A) (A) (A) (A) (A) (A) (A) (A) (A) (A)
                 (A) (A) (A) (A) (A) (A) (A) (A) (A) (A) (A) (A)
                 (A) (A) (A) (A) (A) (A) (A) (A) (A) (A) (A) (A)
                 (A) (A) (A) (A) (A) (A) (A) (A) (A) (A) (A) (A)
                 (A) (A) (A) (A) (A) (A) (A) (A) (A) (A) (A) (A)
                 (A) (A) (A) (A) (A) (A) (A) (A) (A) (A) (A) (A)
                 (A) (A) (A) (A) (A) (A) (A) (A) (A) (A) (A) (A)
                 (A) (A) (A) (A) (A) (A) (A) (A) (A) (A) (A) (A)
                 (A) (A) (A) (A) (A) (A) (A) (A) (A) (A) (A) (A)
                 (A) (A) (A)
 Beta  Orbitals:
       Occupied  (A) (A) (A) (A) (A) (A) (A) (A) (A) (A) (A) (A)
                 (A) (A) (A) (A) (A) (A) (A) (A) (A) (A) (A) (A)
                 (A) (A) (A) (A) (A) (A) (A) (A) (A) (A) (A) (A)
                 (A) (A) (A) (A) (A) (A) (A) (A)
       Virtual   (A) (A) (A) (A) (A) (A) (A) (A) (A) (A) (A) (A)
                 (A) (A) (A) (A) (A) (A) (A) (A) (A) (A) (A) (A)
                 (A) (A) (A) (A) (A) (A) (A) (A) (A) (A) (A) (A)
                 (A) (A) (A) (A) (A) (A) (A) (A) (A) (A) (A) (A)
                 (A) (A) (A) (A) (A) (A) (A) (A) (A) (A) (A) (A)
                 (A) (A) (A) (A) (A) (A) (A) (A) (A) (A) (A) (A)
                 (A) (A) (A) (A) (A) (A) (A) (A) (A) (A) (A) (A)
                 (A) (A) (A) (A) (A) (A) (A) (A) (A) (A) (A) (A)
                 (A) (A) (A) (A) (A) (A) (A) (A) (A) (A) (A) (A)
                 (A) (A) (A) (A) (A) (A) (A) (A) (A) (A) (A) (A)
                 (A) (A) (A) (A) (A) (A) (A) (A) (A) (A) (A) (A)
                 (A) (A) (A) (A) (A) (A) (A) (A) (A) (A) (A) (A)
                 (A) (A) (A) (A) (A) (A) (A) (A) (A) (A) (A) (A)
                 (A) (A) (A) (A) (A) (A) (A) (A) (A) (A) (A) (A)
                 (A) (A) (A) (A) (A) (A) (A) (A) (A) (A) (A) (A)
                 (A) (A) (A) (A) (A) (A) (A) (A) (A) (A) (A) (A)
                 (A) (A) (A) (A) (A) (A) (A) (A) (A) (A) (A) (A)
                 (A) (A) (A) (A) (A) (A) (A) (A) (A) (A) (A) (A)
                 (A) (A) (A) (A) (A) (A) (A) (A) (A) (A) (A) (A)
                 (A) (A) (A) (A) (A) (A) (A) (A) (A) (A) (A) (A)
                 (A) (A) (A) (A) (A) (A) (A) (A) (A) (A) (A) (A)
                 (A) (A) (A) (A) (A) (A) (A) (A) (A) (A) (A) (A)
                 (A) (A) (A) (A)
 The electronic state of the initial guess is 2-A.
 Initial guess <Sx>= 0.0000 <Sy>= 0.0000 <Sz>= 0.5000 <S**2>= 0.7500 S= 0.5000
 Leave Link  401 at Fri Feb 21 12:51:35 2014, MaxMem= 4026531840 cpu:      12.4
 (Enter /usr/caen/gaussian-09revc/g09/l502.exe)
 UHF open shell SCF:
 Requested convergence on RMS density matrix=1.00D-08 within 128 cycles.
 Requested convergence on MAX density matrix=1.00D-06.
 Requested convergence on             energy=1.00D-06.
 No special actions if energy rises.
 Using DIIS extrapolation, IDIIS=  1040.
 Integral symmetry usage will be decided dynamically.
       257348 words used for storage of precomputed grid.
 Keep R1 and R2 ints in memory in canonical form, NReq=2755662079.
 IEnd=      593506 IEndB=      593506 NGot=  4026531840 MDV=  1287996997
 LenX=  1287996997 LenY=  1287892227
 Symmetry not used in FoFDir.
 MinBra= 0 MaxBra= 2 Meth= 1.
 IRaf=       0 NMat=   1 IRICut=       1 DoRegI=T DoRafI=F ISym2E= 0 JSym2E=0.
 Integral accuracy reduced to 1.0D-05 until final iterations.

 Cycle   1  Pass 0  IDiag  1:
 E= -504.433744725818    
 DIIS: error= 4.05D-02 at cycle   1 NSaved=   1.
 NSaved= 1 IEnMin= 1 EnMin= -504.433744725818     IErMin= 1 ErrMin= 4.05D-02
 ErrMax= 4.05D-02 EMaxC= 1.00D-01 BMatC= 1.44D+00 BMatP= 1.44D+00
 IDIUse=3 WtCom= 5.95D-01 WtEn= 4.05D-01
 Coeff-Com:  0.100D+01
 Coeff-En:   0.100D+01
 Coeff:      0.100D+01
 Gap=     0.235 Goal=   None    Shift=    0.000
 Gap=     0.128 Goal=   None    Shift=    0.000
 GapD=    0.128 DampG=1.000 DampE=0.500 DampFc=0.5000 IDamp=-1.
 Damping current iteration by 5.00D-01
 RMSDP=3.26D-03 MaxDP=1.20D-01              OVMax= 2.00D-01

 Cycle   2  Pass 0  IDiag  1:
 E= -504.584700815055     Delta-E=       -0.150956089237 Rises=F Damp=T
 DIIS: error= 5.75D-03 at cycle   2 NSaved=   2.
 NSaved= 2 IEnMin= 2 EnMin= -504.584700815055     IErMin= 2 ErrMin= 5.75D-03
 ErrMax= 5.75D-03 EMaxC= 1.00D-01 BMatC= 8.02D-02 BMatP= 1.44D+00
 IDIUse=3 WtCom= 9.43D-01 WtEn= 5.75D-02
 Coeff-Com:  0.657D-01 0.934D+00
 Coeff-En:   0.163D+00 0.837D+00
 Coeff:      0.713D-01 0.929D+00
 Gap=     0.324 Goal=   None    Shift=    0.000
 Gap=     0.201 Goal=   None    Shift=    0.000
 RMSDP=7.20D-04 MaxDP=1.83D-02 DE=-1.51D-01 OVMax= 1.44D-01

 Cycle   3  Pass 0  IDiag  1:
 E= -504.789125696677     Delta-E=       -0.204424881622 Rises=F Damp=F
 DIIS: error= 3.61D-03 at cycle   3 NSaved=   3.
 NSaved= 3 IEnMin= 3 EnMin= -504.789125696677     IErMin= 3 ErrMin= 3.61D-03
 ErrMax= 3.61D-03 EMaxC= 1.00D-01 BMatC= 2.59D-02 BMatP= 8.02D-02
 IDIUse=3 WtCom= 9.64D-01 WtEn= 3.61D-02
 Coeff-Com: -0.241D-01 0.320D+00 0.705D+00
 Coeff-En:   0.000D+00 0.000D+00 0.100D+01
 Coeff:     -0.233D-01 0.308D+00 0.715D+00
 Gap=     0.240 Goal=   None    Shift=    0.000
 Gap=     0.127 Goal=   None    Shift=    0.000
 RMSDP=3.71D-04 MaxDP=1.62D-02 DE=-2.04D-01 OVMax= 2.18D-02

 Cycle   4  Pass 0  IDiag  1:
 E= -504.792030453363     Delta-E=       -0.002904756686 Rises=F Damp=F
 DIIS: error= 4.45D-03 at cycle   4 NSaved=   4.
 NSaved= 4 IEnMin= 4 EnMin= -504.792030453363     IErMin= 3 ErrMin= 3.61D-03
 ErrMax= 4.45D-03 EMaxC= 1.00D-01 BMatC= 1.75D-02 BMatP= 2.59D-02
 IDIUse=3 WtCom= 9.55D-01 WtEn= 4.45D-02
 Coeff-Com: -0.235D-01 0.129D+00 0.470D+00 0.424D+00
 Coeff-En:   0.000D+00 0.000D+00 0.345D+00 0.655D+00
 Coeff:     -0.225D-01 0.123D+00 0.465D+00 0.434D+00
 Gap=     0.243 Goal=   None    Shift=    0.000
 Gap=     0.129 Goal=   None    Shift=    0.000
 RMSDP=1.82D-04 MaxDP=9.79D-03 DE=-2.90D-03 OVMax= 2.48D-02

 Cycle   5  Pass 0  IDiag  1:
 E= -504.794921058904     Delta-E=       -0.002890605540 Rises=F Damp=F
 DIIS: error= 2.14D-03 at cycle   5 NSaved=   5.
 NSaved= 5 IEnMin= 5 EnMin= -504.794921058904     IErMin= 5 ErrMin= 2.14D-03
 ErrMax= 2.14D-03 EMaxC= 1.00D-01 BMatC= 3.02D-03 BMatP= 1.75D-02
 IDIUse=3 WtCom= 9.79D-01 WtEn= 2.14D-02
 Coeff-Com: -0.114D-01 0.301D-01 0.192D+00 0.310D+00 0.479D+00
 Coeff-En:   0.000D+00 0.000D+00 0.000D+00 0.156D+00 0.844D+00
 Coeff:     -0.112D-01 0.295D-01 0.188D+00 0.307D+00 0.487D+00
 Gap=     0.242 Goal=   None    Shift=    0.000
 Gap=     0.128 Goal=   None    Shift=    0.000
 RMSDP=6.59D-05 MaxDP=2.50D-03 DE=-2.89D-03 OVMax= 5.86D-03

 Cycle   6  Pass 0  IDiag  1:
 E= -504.795497434064     Delta-E=       -0.000576375161 Rises=F Damp=F
 DIIS: error= 4.44D-04 at cycle   6 NSaved=   6.
 NSaved= 6 IEnMin= 6 EnMin= -504.795497434064     IErMin= 6 ErrMin= 4.44D-04
 ErrMax= 4.44D-04 EMaxC= 1.00D-01 BMatC= 2.02D-04 BMatP= 3.02D-03
 IDIUse=3 WtCom= 9.96D-01 WtEn= 4.44D-03
 Coeff-Com: -0.185D-02-0.516D-02 0.221D-01 0.966D-01 0.255D+00 0.633D+00
 Coeff-En:   0.000D+00 0.000D+00 0.000D+00 0.000D+00 0.000D+00 0.100D+01
 Coeff:     -0.184D-02-0.514D-02 0.220D-01 0.962D-01 0.254D+00 0.635D+00
 Gap=     0.241 Goal=   None    Shift=    0.000
 Gap=     0.129 Goal=   None    Shift=    0.000
 RMSDP=2.92D-05 MaxDP=1.10D-03 DE=-5.76D-04 OVMax= 8.66D-03

 Cycle   7  Pass 0  IDiag  1:
 E= -504.795564878362     Delta-E=       -0.000067444298 Rises=F Damp=F
 DIIS: error= 2.36D-04 at cycle   7 NSaved=   7.
 NSaved= 7 IEnMin= 7 EnMin= -504.795564878362     IErMin= 7 ErrMin= 2.36D-04
 ErrMax= 2.36D-04 EMaxC= 1.00D-01 BMatC= 3.41D-05 BMatP= 2.02D-04
 IDIUse=3 WtCom= 9.98D-01 WtEn= 2.36D-03
 Coeff-Com:  0.123D-02-0.690D-02-0.232D-01-0.126D-01 0.401D-02 0.255D+00
 Coeff-Com:  0.783D+00
 Coeff-En:   0.000D+00 0.000D+00 0.000D+00 0.000D+00 0.000D+00 0.000D+00
 Coeff-En:   0.100D+01
 Coeff:      0.123D-02-0.689D-02-0.232D-01-0.126D-01 0.400D-02 0.254D+00
 Coeff:      0.783D+00
 Gap=     0.241 Goal=   None    Shift=    0.000
 Gap=     0.129 Goal=   None    Shift=    0.000
 RMSDP=1.92D-05 MaxDP=8.95D-04 DE=-6.74D-05 OVMax= 6.56D-03

 Cycle   8  Pass 0  IDiag  1:
 E= -504.795588144496     Delta-E=       -0.000023266134 Rises=F Damp=F
 DIIS: error= 2.09D-04 at cycle   8 NSaved=   8.
 NSaved= 8 IEnMin= 8 EnMin= -504.795588144496     IErMin= 8 ErrMin= 2.09D-04
 ErrMax= 2.09D-04 EMaxC= 1.00D-01 BMatC= 1.58D-05 BMatP= 3.41D-05
 IDIUse=3 WtCom= 9.98D-01 WtEn= 2.09D-03
 Coeff-Com:  0.158D-02-0.216D-02-0.241D-01-0.436D-01-0.106D+00-0.799D-01
 Coeff-Com:  0.491D+00 0.763D+00
 Coeff-En:   0.000D+00 0.000D+00 0.000D+00 0.000D+00 0.000D+00 0.000D+00
 Coeff-En:   0.000D+00 0.100D+01
 Coeff:      0.158D-02-0.216D-02-0.241D-01-0.436D-01-0.106D+00-0.797D-01
 Coeff:      0.490D+00 0.764D+00
 Gap=     0.241 Goal=   None    Shift=    0.000
 Gap=     0.130 Goal=   None    Shift=    0.000
 RMSDP=1.78D-05 MaxDP=8.40D-04 DE=-2.33D-05 OVMax= 7.05D-03

 Cycle   9  Pass 0  IDiag  1:
 E= -504.795602632746     Delta-E=       -0.000014488250 Rises=F Damp=F
 DIIS: error= 1.10D-04 at cycle   9 NSaved=   9.
 NSaved= 9 IEnMin= 9 EnMin= -504.795602632746     IErMin= 9 ErrMin= 1.10D-04
 ErrMax= 1.10D-04 EMaxC= 1.00D-01 BMatC= 2.36D-06 BMatP= 1.58D-05
 IDIUse=3 WtCom= 9.99D-01 WtEn= 1.10D-03
 Coeff-Com: -0.205D-04 0.117D-02 0.557D-03-0.530D-02-0.261D-01-0.714D-01
 Coeff-Com: -0.822D-01 0.181D+00 0.100D+01
 Coeff-En:   0.000D+00 0.000D+00 0.000D+00 0.000D+00 0.000D+00 0.000D+00
 Coeff-En:   0.000D+00 0.000D+00 0.100D+01
 Coeff:     -0.204D-04 0.117D-02 0.556D-03-0.530D-02-0.261D-01-0.713D-01
 Coeff:     -0.821D-01 0.181D+00 0.100D+01
 Gap=     0.241 Goal=   None    Shift=    0.000
 Gap=     0.130 Goal=   None    Shift=    0.000
 RMSDP=1.17D-05 MaxDP=6.05D-04 DE=-1.45D-05 OVMax= 4.72D-03

 Cycle  10  Pass 0  IDiag  1:
 E= -504.795607303685     Delta-E=       -0.000004670939 Rises=F Damp=F
 DIIS: error= 6.25D-05 at cycle  10 NSaved=  10.
 NSaved=10 IEnMin=10 EnMin= -504.795607303685     IErMin=10 ErrMin= 6.25D-05
 ErrMax= 6.25D-05 EMaxC= 1.00D-01 BMatC= 7.72D-07 BMatP= 2.36D-06
 IDIUse=1 WtCom= 1.00D+00 WtEn= 0.00D+00
 Coeff-Com: -0.571D-03 0.123D-02 0.913D-02 0.133D-01 0.297D-01 0.980D-02
 Coeff-Com: -0.226D+00-0.176D+00 0.313D+00 0.103D+01
 Coeff:     -0.571D-03 0.123D-02 0.913D-02 0.133D-01 0.297D-01 0.980D-02
 Coeff:     -0.226D+00-0.176D+00 0.313D+00 0.103D+01
 Gap=     0.241 Goal=   None    Shift=    0.000
 Gap=     0.130 Goal=   None    Shift=    0.000
 RMSDP=8.67D-06 MaxDP=4.62D-04 DE=-4.67D-06 OVMax= 3.53D-03

 Initial convergence to 1.0D-05 achieved.  Increase integral accuracy.
 Cycle  11  Pass 1  IDiag  1:
 E= -504.795665395601     Delta-E=       -0.000058091915 Rises=F Damp=F
 DIIS: error= 2.72D-05 at cycle   1 NSaved=   1.
 NSaved= 1 IEnMin= 1 EnMin= -504.795665395601     IErMin= 1 ErrMin= 2.72D-05
 ErrMax= 2.72D-05 EMaxC= 1.00D-01 BMatC= 6.63D-07 BMatP= 6.63D-07
 IDIUse=1 WtCom= 1.00D+00 WtEn= 0.00D+00
 Coeff-Com:  0.100D+01
 Coeff:      0.100D+01
 Gap=     0.241 Goal=   None    Shift=    0.000
 Gap=     0.130 Goal=   None    Shift=    0.000
 RMSDP=8.67D-06 MaxDP=4.62D-04 DE=-5.81D-05 OVMax= 7.93D-04

 Cycle  12  Pass 1  IDiag  1:
 E= -504.795665742921     Delta-E=       -0.000000347320 Rises=F Damp=F
 DIIS: error= 2.17D-05 at cycle   2 NSaved=   2.
 NSaved= 2 IEnMin= 2 EnMin= -504.795665742921     IErMin= 2 ErrMin= 2.17D-05
 ErrMax= 2.17D-05 EMaxC= 1.00D-01 BMatC= 2.83D-07 BMatP= 6.63D-07
 IDIUse=1 WtCom= 1.00D+00 WtEn= 0.00D+00
 Coeff-Com:  0.330D+00 0.670D+00
 Coeff:      0.330D+00 0.670D+00
 Gap=     0.241 Goal=   None    Shift=    0.000
 Gap=     0.130 Goal=   None    Shift=    0.000
 RMSDP=1.50D-06 MaxDP=7.15D-05 DE=-3.47D-07 OVMax= 4.20D-04

 Cycle  13  Pass 1  IDiag  1:
 E= -504.795665842455     Delta-E=       -0.000000099534 Rises=F Damp=F
 DIIS: error= 1.52D-05 at cycle   3 NSaved=   3.
 NSaved= 3 IEnMin= 3 EnMin= -504.795665842455     IErMin= 3 ErrMin= 1.52D-05
 ErrMax= 1.52D-05 EMaxC= 1.00D-01 BMatC= 1.83D-07 BMatP= 2.83D-07
 IDIUse=1 WtCom= 1.00D+00 WtEn= 0.00D+00
 Coeff-Com: -0.429D-01 0.439D+00 0.604D+00
 Coeff:     -0.429D-01 0.439D+00 0.604D+00
 Gap=     0.241 Goal=   None    Shift=    0.000
 Gap=     0.130 Goal=   None    Shift=    0.000
 RMSDP=1.14D-06 MaxDP=6.12D-05 DE=-9.95D-08 OVMax= 3.80D-04

 Cycle  14  Pass 1  IDiag  1:
 E= -504.795665927514     Delta-E=       -0.000000085059 Rises=F Damp=F
 DIIS: error= 1.25D-05 at cycle   4 NSaved=   4.
 NSaved= 4 IEnMin= 4 EnMin= -504.795665927514     IErMin= 4 ErrMin= 1.25D-05
 ErrMax= 1.25D-05 EMaxC= 1.00D-01 BMatC= 3.79D-08 BMatP= 1.83D-07
 IDIUse=1 WtCom= 1.00D+00 WtEn= 0.00D+00
 Coeff-Com: -0.633D-01 0.195D+00 0.336D+00 0.533D+00
 Coeff:     -0.633D-01 0.195D+00 0.336D+00 0.533D+00
 Gap=     0.241 Goal=   None    Shift=    0.000
 Gap=     0.130 Goal=   None    Shift=    0.000
 RMSDP=6.09D-07 MaxDP=2.93D-05 DE=-8.51D-08 OVMax= 2.28D-04

 Cycle  15  Pass 1  IDiag  1:
 E= -504.795665957463     Delta-E=       -0.000000029949 Rises=F Damp=F
 DIIS: error= 1.06D-05 at cycle   5 NSaved=   5.
 NSaved= 5 IEnMin= 5 EnMin= -504.795665957463     IErMin= 5 ErrMin= 1.06D-05
 ErrMax= 1.06D-05 EMaxC= 1.00D-01 BMatC= 2.01D-08 BMatP= 3.79D-08
 IDIUse=1 WtCom= 1.00D+00 WtEn= 0.00D+00
 Coeff-Com: -0.942D-02-0.240D+00-0.336D+00 0.473D+00 0.111D+01
 Coeff:     -0.942D-02-0.240D+00-0.336D+00 0.473D+00 0.111D+01
 Gap=     0.241 Goal=   None    Shift=    0.000
 Gap=     0.130 Goal=   None    Shift=    0.000
 RMSDP=1.37D-06 MaxDP=7.28D-05 DE=-2.99D-08 OVMax= 5.61D-04

 Cycle  16  Pass 1  IDiag  1:
 E= -504.795665999713     Delta-E=       -0.000000042250 Rises=F Damp=F
 DIIS: error= 4.03D-06 at cycle   6 NSaved=   6.
 NSaved= 6 IEnMin= 6 EnMin= -504.795665999713     IErMin= 6 ErrMin= 4.03D-06
 ErrMax= 4.03D-06 EMaxC= 1.00D-01 BMatC= 1.12D-08 BMatP= 2.01D-08
 IDIUse=1 WtCom= 1.00D+00 WtEn= 0.00D+00
 Coeff-Com:  0.236D-01-0.298D+00-0.461D+00 0.127D+00 0.928D+00 0.680D+00
 Coeff:      0.236D-01-0.298D+00-0.461D+00 0.127D+00 0.928D+00 0.680D+00
 Gap=     0.241 Goal=   None    Shift=    0.000
 Gap=     0.130 Goal=   None    Shift=    0.000
 RMSDP=9.17D-07 MaxDP=4.82D-05 DE=-4.23D-08 OVMax= 3.72D-04

 Cycle  17  Pass 1  IDiag  1:
 E= -504.795666011816     Delta-E=       -0.000000012103 Rises=F Damp=F
 DIIS: error= 1.04D-06 at cycle   7 NSaved=   7.
 NSaved= 7 IEnMin= 7 EnMin= -504.795666011816     IErMin= 7 ErrMin= 1.04D-06
 ErrMax= 1.04D-06 EMaxC= 1.00D-01 BMatC= 6.55D-10 BMatP= 1.12D-08
 IDIUse=1 WtCom= 1.00D+00 WtEn= 0.00D+00
 Coeff-Com:  0.104D-01-0.947D-01-0.140D+00-0.253D-01 0.270D+00 0.280D+00
 Coeff-Com:  0.700D+00
 Coeff:      0.104D-01-0.947D-01-0.140D+00-0.253D-01 0.270D+00 0.280D+00
 Coeff:      0.700D+00
 Gap=     0.241 Goal=   None    Shift=    0.000
 Gap=     0.130 Goal=   None    Shift=    0.000
 RMSDP=1.49D-07 MaxDP=8.01D-06 DE=-1.21D-08 OVMax= 6.14D-05

 Cycle  18  Pass 1  IDiag  1:
 E= -504.795666012305     Delta-E=       -0.000000000489 Rises=F Damp=F
 DIIS: error= 3.45D-07 at cycle   8 NSaved=   8.
 NSaved= 8 IEnMin= 8 EnMin= -504.795666012305     IErMin= 8 ErrMin= 3.45D-07
 ErrMax= 3.45D-07 EMaxC= 1.00D-01 BMatC= 1.23D-10 BMatP= 6.55D-10
 IDIUse=1 WtCom= 1.00D+00 WtEn= 0.00D+00
 Coeff-Com:  0.186D-03 0.117D-01 0.265D-01-0.438D-01-0.417D-01-0.110D-01
 Coeff-Com:  0.255D+00 0.803D+00
 Coeff:      0.186D-03 0.117D-01 0.265D-01-0.438D-01-0.417D-01-0.110D-01
 Coeff:      0.255D+00 0.803D+00
 Gap=     0.241 Goal=   None    Shift=    0.000
 Gap=     0.130 Goal=   None    Shift=    0.000
 RMSDP=5.58D-08 MaxDP=2.68D-06 DE=-4.89D-10 OVMax= 2.19D-05

 Cycle  19  Pass 1  IDiag  1:
 E= -504.795666012389     Delta-E=       -0.000000000085 Rises=F Damp=F
 DIIS: error= 1.43D-07 at cycle   9 NSaved=   9.
 NSaved= 9 IEnMin= 9 EnMin= -504.795666012389     IErMin= 9 ErrMin= 1.43D-07
 ErrMax= 1.43D-07 EMaxC= 1.00D-01 BMatC= 2.36D-11 BMatP= 1.23D-10
 IDIUse=1 WtCom= 1.00D+00 WtEn= 0.00D+00
 Coeff-Com: -0.201D-02 0.247D-01 0.416D-01-0.145D-01-0.722D-01-0.655D-01
 Coeff-Com: -0.595D-01 0.321D+00 0.826D+00
 Coeff:     -0.201D-02 0.247D-01 0.416D-01-0.145D-01-0.722D-01-0.655D-01
 Coeff:     -0.595D-01 0.321D+00 0.826D+00
 Gap=     0.241 Goal=   None    Shift=    0.000
 Gap=     0.130 Goal=   None    Shift=    0.000
 RMSDP=2.15D-08 MaxDP=9.80D-07 DE=-8.46D-11 OVMax= 7.60D-06

 Cycle  20  Pass 1  IDiag  1:
 E= -504.795666012409     Delta-E=       -0.000000000020 Rises=F Damp=F
 DIIS: error= 4.94D-08 at cycle  10 NSaved=  10.
 NSaved=10 IEnMin=10 EnMin= -504.795666012409     IErMin=10 ErrMin= 4.94D-08
 ErrMax= 4.94D-08 EMaxC= 1.00D-01 BMatC= 2.48D-12 BMatP= 2.36D-11
 IDIUse=1 WtCom= 1.00D+00 WtEn= 0.00D+00
 Coeff-Com: -0.662D-03 0.557D-02 0.867D-02 0.228D-02-0.149D-01-0.173D-01
 Coeff-Com: -0.620D-01-0.393D-01 0.244D+00 0.874D+00
 Coeff:     -0.662D-03 0.557D-02 0.867D-02 0.228D-02-0.149D-01-0.173D-01
 Coeff:     -0.620D-01-0.393D-01 0.244D+00 0.874D+00
 Gap=     0.241 Goal=   None    Shift=    0.000
 Gap=     0.130 Goal=   None    Shift=    0.000
 RMSDP=6.01D-09 MaxDP=2.56D-07 DE=-1.98D-11 OVMax= 1.59D-06

 SCF Done:  E(UB3LYP) =  -504.795666012     A.U. after   20 cycles
             Convg  =    0.6008D-08             -V/T =  2.0042
 <Sx>= 0.0000 <Sy>= 0.0000 <Sz>= 0.5000 <S**2>= 0.7583 S= 0.5042
 <L.S>= 0.000000000000E+00
 KE= 5.026641991615D+02 PE=-2.472162498672D+03 EE= 8.165602361881D+02
 Annihilation of the first spin contaminant:
 S**2 before annihilation     0.7583,   after     0.7500
 Leave Link  502 at Fri Feb 21 12:54:59 2014, MaxMem= 4026531840 cpu:    1593.1
 (Enter /usr/caen/gaussian-09revc/g09/l801.exe)
 Range of M.O.s used for correlation:     1   312
 NBasis=   312 NAE=    45 NBE=    44 NFC=     0 NFV=     0
 NROrb=    312 NOA=    45 NOB=    44 NVA=   267 NVB=   268
 Leave Link  801 at Fri Feb 21 12:55:00 2014, MaxMem= 4026531840 cpu:       1.6
 (Enter /usr/caen/gaussian-09revc/g09/l1101.exe)
 Using compressed storage, NAtomX=    30.
 Will process  31 centers per pass.
 Leave Link 1101 at Fri Feb 21 12:55:02 2014, MaxMem= 4026531840 cpu:       7.1
 (Enter /usr/caen/gaussian-09revc/g09/l1102.exe)
 Symmetrizing basis deriv contribution to polar:
 IMax=3 JMax=2 DiffMx= 0.00D+00
 Leave Link 1102 at Fri Feb 21 12:55:02 2014, MaxMem= 4026531840 cpu:       1.8
 (Enter /usr/caen/gaussian-09revc/g09/l1110.exe)
 Forming Gx(P) for the SCF density, NAtomX=    30.
 Integral derivatives from FoFDir/FoFCou, PRISM(SPDF).
 Do as many integral derivatives as possible in FoFDir.
 G2DrvN: MDV=    4026531496.
 G2DrvN: will do    31 centers at a time, making    1 passes doing MaxLOS=2.
 Calling FoFCou, ICntrl=  3107 FMM=F I1Cent=   0 AccDes= 0.00D+00.
 FoFCou: FMM=F IPFlag=           0 FMFlag=      100000 FMFlg1=           0
         NFxFlg=           0 DoJE=F BraDBF=F KetDBF=F FulRan=T
         Omega=  0.000000  0.000000  1.000000  0.000000  0.000000 ICntrl=    3107 IOpCl=  1
         NMat0=    1 NMatS0=    1 NMatT0=    0 NMatD0=    1 NMtDS0=    0 NMtDT0=    0
         I1Cent=           0 NGrid=           0.
 Symmetry not used in FoFCou.
 FoFDir/FoFCou used for L=0 through L=2.
 End of G2Drv Frequency-dependent properties file   721 does not exist.
 End of G2Drv Frequency-dependent properties file   722 does not exist.
 Leave Link 1110 at Fri Feb 21 12:58:08 2014, MaxMem= 4026531840 cpu:    1481.0
 (Enter /usr/caen/gaussian-09revc/g09/l1002.exe)
 Minotr:  UHF open shell wavefunction.
          IDoAtm=111111111111111111111111111111
          Direct CPHF calculation.
          Differentiating once with respect to nuclear coordinates.
          Requested convergence is 1.0D-06 RMS, and 1.0D-05 maximum.
          Secondary convergence is 1.0D-12 RMS, and 1.0D-12 maximum.
          NewPWx=T KeepS1=F KeepF1=F KeepIn=T MapXYZ=F SortEE=F KeepMc=T.
          MDV=    4026531536 using IRadAn=       2.
 Generate precomputed XC quadrature information.
          Keep R1 and R2 ints in memory in canonical form, NReq=2738891885.
 Symmetry not used in FoFDir.
 MinBra= 0 MaxBra= 2 Meth= 1.
 IRaf=       0 NMat=   1 IRICut=       1 DoRegI=T DoRafI=F ISym2E= 0 JSym2E=0.
          Solving linear equations simultaneously, MaxMat=       0.
          There are    93 degrees of freedom in the 1st order CPHF.  IDoFFX=5.
     87 vectors produced by pass  0 Test12= 2.56D-10 1.08D-07 XBig12= 2.21D-01 1.80D-01.
 AX will form    87 AO Fock derivatives at one time.
     87 vectors produced by pass  1 Test12= 2.56D-10 1.08D-07 XBig12= 1.47D-02 1.95D-02.
     87 vectors produced by pass  2 Test12= 2.56D-10 1.08D-07 XBig12= 1.07D-04 2.02D-03.
     87 vectors produced by pass  3 Test12= 2.56D-10 1.08D-07 XBig12= 9.56D-07 1.46D-04.
     61 vectors produced by pass  4 Test12= 2.56D-10 1.08D-07 XBig12= 4.65D-09 5.86D-06.
     14 vectors produced by pass  5 Test12= 2.56D-10 1.08D-07 XBig12= 1.67D-11 4.01D-07.
 Inverted reduced A of dimension   423 with in-core refinement.
 End of Minotr Frequency-dependent properties file   721 does not exist.
 End of Minotr Frequency-dependent properties file   722 does not exist.
 Leave Link 1002 at Fri Feb 21 13:02:50 2014, MaxMem= 4026531840 cpu:    2247.1
 (Enter /usr/caen/gaussian-09revc/g09/l601.exe)
 Copying SCF densities to generalized density rwf, IOpCl= 1 IROHF=0.

 **********************************************************************

            Population analysis using the SCF density.

 **********************************************************************

 Orbital symmetries:
 Alpha Orbitals:
       Occupied  (A) (A) (A) (A) (A) (A) (A) (A) (A) (A) (A) (A)
                 (A) (A) (A) (A) (A) (A) (A) (A) (A) (A) (A) (A)
                 (A) (A) (A) (A) (A) (A) (A) (A) (A) (A) (A) (A)
                 (A) (A) (A) (A) (A) (A) (A) (A) (A)
       Virtual   (A) (A) (A) (A) (A) (A) (A) (A) (A) (A) (A) (A)
                 (A) (A) (A) (A) (A) (A) (A) (A) (A) (A) (A) (A)
                 (A) (A) (A) (A) (A) (A) (A) (A) (A) (A) (A) (A)
                 (A) (A) (A) (A) (A) (A) (A) (A) (A) (A) (A) (A)
                 (A) (A) (A) (A) (A) (A) (A) (A) (A) (A) (A) (A)
                 (A) (A) (A) (A) (A) (A) (A) (A) (A) (A) (A) (A)
                 (A) (A) (A) (A) (A) (A) (A) (A) (A) (A) (A) (A)
                 (A) (A) (A) (A) (A) (A) (A) (A) (A) (A) (A) (A)
                 (A) (A) (A) (A) (A) (A) (A) (A) (A) (A) (A) (A)
                 (A) (A) (A) (A) (A) (A) (A) (A) (A) (A) (A) (A)
                 (A) (A) (A) (A) (A) (A) (A) (A) (A) (A) (A) (A)
                 (A) (A) (A) (A) (A) (A) (A) (A) (A) (A) (A) (A)
                 (A) (A) (A) (A) (A) (A) (A) (A) (A) (A) (A) (A)
                 (A) (A) (A) (A) (A) (A) (A) (A) (A) (A) (A) (A)
                 (A) (A) (A) (A) (A) (A) (A) (A) (A) (A) (A) (A)
                 (A) (A) (A) (A) (A) (A) (A) (A) (A) (A) (A) (A)
                 (A) (A) (A) (A) (A) (A) (A) (A) (A) (A) (A) (A)
                 (A) (A) (A) (A) (A) (A) (A) (A) (A) (A) (A) (A)
                 (A) (A) (A) (A) (A) (A) (A) (A) (A) (A) (A) (A)
                 (A) (A) (A) (A) (A) (A) (A) (A) (A) (A) (A) (A)
                 (A) (A) (A) (A) (A) (A) (A) (A) (A) (A) (A) (A)
                 (A) (A) (A) (A) (A) (A) (A) (A) (A) (A) (A) (A)
                 (A) (A) (A)
 Beta  Orbitals:
       Occupied  (A) (A) (A) (A) (A) (A) (A) (A) (A) (A) (A) (A)
                 (A) (A) (A) (A) (A) (A) (A) (A) (A) (A) (A) (A)
                 (A) (A) (A) (A) (A) (A) (A) (A) (A) (A) (A) (A)
                 (A) (A) (A) (A) (A) (A) (A) (A)
       Virtual   (A) (A) (A) (A) (A) (A) (A) (A) (A) (A) (A) (A)
                 (A) (A) (A) (A) (A) (A) (A) (A) (A) (A) (A) (A)
                 (A) (A) (A) (A) (A) (A) (A) (A) (A) (A) (A) (A)
                 (A) (A) (A) (A) (A) (A) (A) (A) (A) (A) (A) (A)
                 (A) (A) (A) (A) (A) (A) (A) (A) (A) (A) (A) (A)
                 (A) (A) (A) (A) (A) (A) (A) (A) (A) (A) (A) (A)
                 (A) (A) (A) (A) (A) (A) (A) (A) (A) (A) (A) (A)
                 (A) (A) (A) (A) (A) (A) (A) (A) (A) (A) (A) (A)
                 (A) (A) (A) (A) (A) (A) (A) (A) (A) (A) (A) (A)
                 (A) (A) (A) (A) (A) (A) (A) (A) (A) (A) (A) (A)
                 (A) (A) (A) (A) (A) (A) (A) (A) (A) (A) (A) (A)
                 (A) (A) (A) (A) (A) (A) (A) (A) (A) (A) (A) (A)
                 (A) (A) (A) (A) (A) (A) (A) (A) (A) (A) (A) (A)
                 (A) (A) (A) (A) (A) (A) (A) (A) (A) (A) (A) (A)
                 (A) (A) (A) (A) (A) (A) (A) (A) (A) (A) (A) (A)
                 (A) (A) (A) (A) (A) (A) (A) (A) (A) (A) (A) (A)
                 (A) (A) (A) (A) (A) (A) (A) (A) (A) (A) (A) (A)
                 (A) (A) (A) (A) (A) (A) (A) (A) (A) (A) (A) (A)
                 (A) (A) (A) (A) (A) (A) (A) (A) (A) (A) (A) (A)
                 (A) (A) (A) (A) (A) (A) (A) (A) (A) (A) (A) (A)
                 (A) (A) (A) (A) (A) (A) (A) (A) (A) (A) (A) (A)
                 (A) (A) (A) (A) (A) (A) (A) (A) (A) (A) (A) (A)
                 (A) (A) (A) (A)
 The electronic state is 2-A.
 Alpha  occ. eigenvalues --  -19.19054 -19.18348 -10.25668 -10.19812 -10.17541
 Alpha  occ. eigenvalues --  -10.17372 -10.17242 -10.16800 -10.16399 -10.15619
 Alpha  occ. eigenvalues --  -10.15546  -1.12941  -0.89420  -0.82805  -0.80760
 Alpha  occ. eigenvalues --   -0.75551  -0.69384  -0.68382  -0.68076  -0.61278
 Alpha  occ. eigenvalues --   -0.58285  -0.56018  -0.51750  -0.51001  -0.47722
 Alpha  occ. eigenvalues --   -0.46600  -0.44735  -0.44039  -0.43189  -0.42264
 Alpha  occ. eigenvalues --   -0.40996  -0.39998  -0.39329  -0.38513  -0.38002
 Alpha  occ. eigenvalues --   -0.36933  -0.35963  -0.35313  -0.34363  -0.33754
 Alpha  occ. eigenvalues --   -0.32371  -0.32160  -0.31381  -0.26569  -0.25615
 Alpha virt. eigenvalues --   -0.01547   0.03219   0.04301   0.05552   0.06239
 Alpha virt. eigenvalues --    0.06586   0.07760   0.08805   0.09385   0.10174
 Alpha virt. eigenvalues --    0.10743   0.11426   0.12038   0.12993   0.13538
 Alpha virt. eigenvalues --    0.14095   0.14605   0.15226   0.16055   0.17382
 Alpha virt. eigenvalues --    0.18286   0.18369   0.19959   0.21201   0.22575
 Alpha virt. eigenvalues --    0.23363   0.23714   0.25057   0.25482   0.28672
 Alpha virt. eigenvalues --    0.29366   0.29910   0.31736   0.32928   0.33877
 Alpha virt. eigenvalues --    0.34315   0.36550   0.39046   0.39459   0.40798
 Alpha virt. eigenvalues --    0.42897   0.43837   0.45709   0.46658   0.47356
 Alpha virt. eigenvalues --    0.48054   0.50981   0.52024   0.53887   0.55628
 Alpha virt. eigenvalues --    0.55892   0.56476   0.57225   0.57455   0.57894
 Alpha virt. eigenvalues --    0.57981   0.58567   0.58854   0.59412   0.59660
 Alpha virt. eigenvalues --    0.59844   0.60304   0.60961   0.61870   0.62204
 Alpha virt. eigenvalues --    0.62663   0.63189   0.63697   0.65200   0.65807
 Alpha virt. eigenvalues --    0.66862   0.67540   0.70121   0.71368   0.72562
 Alpha virt. eigenvalues --    0.76835   0.78817   0.82314   0.85758   0.87476
 Alpha virt. eigenvalues --    0.91096   0.91506   0.92003   0.93881   0.94904
 Alpha virt. eigenvalues --    0.98107   0.99219   1.00617   1.03386   1.05134
 Alpha virt. eigenvalues --    1.06275   1.08673   1.12561   1.13247   1.17064
 Alpha virt. eigenvalues --    1.18027   1.19422   1.21808   1.24207   1.24438
 Alpha virt. eigenvalues --    1.27048   1.33879   1.35186   1.36781   1.38044
 Alpha virt. eigenvalues --    1.39995   1.41292   1.42486   1.44074   1.45522
 Alpha virt. eigenvalues --    1.45634   1.46832   1.47468   1.48027   1.49277
 Alpha virt. eigenvalues --    1.50266   1.50939   1.51790   1.52673   1.53580
 Alpha virt. eigenvalues --    1.54531   1.55515   1.55987   1.57071   1.59306
 Alpha virt. eigenvalues --    1.60035   1.60546   1.61320   1.62730   1.63740
 Alpha virt. eigenvalues --    1.65947   1.66880   1.68721   1.69299   1.71228
 Alpha virt. eigenvalues --    1.71560   1.72805   1.73114   1.74279   1.75161
 Alpha virt. eigenvalues --    1.77050   1.78233   1.79335   1.79478   1.82158
 Alpha virt. eigenvalues --    1.83785   1.87193   1.88678   1.92397   1.93020
 Alpha virt. eigenvalues --    1.95844   1.97727   1.99550   2.00112   2.00958
 Alpha virt. eigenvalues --    2.02930   2.03291   2.06409   2.09862   2.10353
 Alpha virt. eigenvalues --    2.11861   2.13870   2.14508   2.16984   2.17905
 Alpha virt. eigenvalues --    2.20094   2.23821   2.25097   2.28610   2.30279
 Alpha virt. eigenvalues --    2.31718   2.32257   2.35070   2.36660   2.37609
 Alpha virt. eigenvalues --    2.39156   2.41010   2.42783   2.44050   2.45054
 Alpha virt. eigenvalues --    2.46485   2.47060   2.48190   2.49174   2.50149
 Alpha virt. eigenvalues --    2.51014   2.51930   2.53071   2.54640   2.55049
 Alpha virt. eigenvalues --    2.56635   2.57094   2.58164   2.58470   2.60833
 Alpha virt. eigenvalues --    2.61185   2.62502   2.63753   2.64663   2.66184
 Alpha virt. eigenvalues --    2.67505   2.69402   2.72022   2.72503   2.74499
 Alpha virt. eigenvalues --    2.75838   2.77354   2.78064   2.80983   2.83179
 Alpha virt. eigenvalues --    2.84013   2.84435   2.87095   2.88051   2.89171
 Alpha virt. eigenvalues --    2.91099   2.92189   2.94455   3.01704   3.03062
 Alpha virt. eigenvalues --    3.05428   3.09790   3.11402   3.13267   3.22274
 Alpha virt. eigenvalues --    3.25126   3.33541   3.41382   3.45172   3.47550
 Alpha virt. eigenvalues --    3.57011   3.64975   3.76472   3.77747   3.77963
 Alpha virt. eigenvalues --    3.78321   3.79385   3.80720   3.82428   3.83291
 Alpha virt. eigenvalues --    3.85305   3.88745   3.95547   3.97273   4.10947
 Alpha virt. eigenvalues --    4.21174   4.22462   4.29451   4.31831   4.39644
 Alpha virt. eigenvalues --    4.66871   4.78982   4.88930   4.91756   5.38576
 Alpha virt. eigenvalues --    5.44948  23.69085  23.81027  23.81755  23.86446
 Alpha virt. eigenvalues --   23.88376  23.91194  23.92873  23.93605  23.94584
 Alpha virt. eigenvalues --   49.71756  49.84447
  Beta  occ. eigenvalues --  -19.18454 -19.17320 -10.24848 -10.19811 -10.17461
  Beta  occ. eigenvalues --  -10.17372 -10.17224 -10.16799 -10.16399 -10.15619
  Beta  occ. eigenvalues --  -10.15546  -1.11349  -0.86607  -0.82559  -0.80579
  Beta  occ. eigenvalues --   -0.75412  -0.68571  -0.68377  -0.67491  -0.61057
  Beta  occ. eigenvalues --   -0.57666  -0.55955  -0.51120  -0.48556  -0.47449
  Beta  occ. eigenvalues --   -0.45856  -0.44616  -0.43887  -0.43006  -0.42107
  Beta  occ. eigenvalues --   -0.40432  -0.39635  -0.38520  -0.37854  -0.37602
  Beta  occ. eigenvalues --   -0.36763  -0.35830  -0.34604  -0.33975  -0.33706
  Beta  occ. eigenvalues --   -0.32320  -0.32120  -0.31220  -0.25252
  Beta virt. eigenvalues --   -0.12269  -0.00449   0.03394   0.04346   0.05749
  Beta virt. eigenvalues --    0.06336   0.06818   0.07910   0.08893   0.09596
  Beta virt. eigenvalues --    0.10373   0.10788   0.11490   0.12188   0.13181
  Beta virt. eigenvalues --    0.13713   0.14403   0.14746   0.15332   0.16213
  Beta virt. eigenvalues --    0.17665   0.18371   0.18519   0.20071   0.21287
  Beta virt. eigenvalues --    0.22682   0.23460   0.23891   0.25189   0.25608
  Beta virt. eigenvalues --    0.28783   0.29545   0.29978   0.31881   0.33058
  Beta virt. eigenvalues --    0.33893   0.34522   0.36644   0.39287   0.39676
  Beta virt. eigenvalues --    0.40872   0.43262   0.44020   0.45886   0.46811
  Beta virt. eigenvalues --    0.47842   0.48735   0.51115   0.52184   0.54402
  Beta virt. eigenvalues --    0.55712   0.56075   0.56731   0.57306   0.57628
  Beta virt. eigenvalues --    0.57910   0.58031   0.58712   0.58911   0.59510
  Beta virt. eigenvalues --    0.59731   0.59880   0.60347   0.61075   0.62029
  Beta virt. eigenvalues --    0.62301   0.62747   0.63218   0.63854   0.65249
  Beta virt. eigenvalues --    0.65873   0.66941   0.67773   0.70300   0.71468
  Beta virt. eigenvalues --    0.73372   0.78203   0.79845   0.82957   0.86184
  Beta virt. eigenvalues --    0.87887   0.91222   0.91729   0.92686   0.94046
  Beta virt. eigenvalues --    0.95130   0.98191   0.99346   1.00845   1.03562
  Beta virt. eigenvalues --    1.05219   1.06403   1.09132   1.12763   1.13660
  Beta virt. eigenvalues --    1.17132   1.18241   1.19572   1.21931   1.24454
  Beta virt. eigenvalues --    1.24672   1.27110   1.34713   1.35848   1.37222
  Beta virt. eigenvalues --    1.38329   1.40289   1.41308   1.42675   1.44312
  Beta virt. eigenvalues --    1.45621   1.45843   1.46967   1.47804   1.48228
  Beta virt. eigenvalues --    1.49805   1.50359   1.50986   1.51893   1.52762
  Beta virt. eigenvalues --    1.53745   1.54657   1.55627   1.56138   1.57258
  Beta virt. eigenvalues --    1.59359   1.60121   1.60770   1.61462   1.62790
  Beta virt. eigenvalues --    1.63957   1.66051   1.67001   1.68866   1.69597
  Beta virt. eigenvalues --    1.71379   1.71725   1.73005   1.73175   1.74350
  Beta virt. eigenvalues --    1.75300   1.77226   1.78237   1.79447   1.79507
  Beta virt. eigenvalues --    1.82311   1.83966   1.87640   1.88871   1.92462
  Beta virt. eigenvalues --    1.93082   1.95900   1.97823   1.99600   2.00503
  Beta virt. eigenvalues --    2.01391   2.03066   2.03325   2.06959   2.10020
  Beta virt. eigenvalues --    2.10454   2.11923   2.14427   2.14561   2.17124
  Beta virt. eigenvalues --    2.18163   2.20193   2.23987   2.25294   2.28652
  Beta virt. eigenvalues --    2.30346   2.31785   2.32631   2.35090   2.36720
  Beta virt. eigenvalues --    2.37692   2.39237   2.41115   2.43009   2.44058
  Beta virt. eigenvalues --    2.45272   2.46583   2.47161   2.48361   2.49247
  Beta virt. eigenvalues --    2.50330   2.51053   2.51971   2.53150   2.54818
  Beta virt. eigenvalues --    2.55120   2.56751   2.57153   2.58247   2.58669
  Beta virt. eigenvalues --    2.61078   2.61480   2.62736   2.63866   2.64751
  Beta virt. eigenvalues --    2.66369   2.67547   2.69768   2.72135   2.72619
  Beta virt. eigenvalues --    2.74556   2.76000   2.77486   2.78236   2.81166
  Beta virt. eigenvalues --    2.83630   2.85714   2.86173   2.87885   2.88260
  Beta virt. eigenvalues --    2.89422   2.91973   2.93085   2.94603   3.01743
  Beta virt. eigenvalues --    3.03769   3.05948   3.10012   3.12012   3.13516
  Beta virt. eigenvalues --    3.22667   3.25357   3.33801   3.43496   3.45789
  Beta virt. eigenvalues --    3.47675   3.59803   3.66319   3.76511   3.77752
  Beta virt. eigenvalues --    3.78068   3.78355   3.79400   3.80731   3.82467
  Beta virt. eigenvalues --    3.83304   3.85313   3.89277   3.95683   3.97283
  Beta virt. eigenvalues --    4.10973   4.21235   4.22884   4.29452   4.31933
  Beta virt. eigenvalues --    4.39681   4.67727   4.80234   4.89608   4.96760
  Beta virt. eigenvalues --    5.39532   5.45526  23.69899  23.81043  23.81758
  Beta virt. eigenvalues --   23.86467  23.88384  23.91252  23.92966  23.93620
  Beta virt. eigenvalues --   23.94591  49.73422  49.84407
          Condensed to atoms (all electrons):
              1          2          3          4          5          6
     1  C    4.900690   0.400573   0.403655   0.398337   0.347524  -0.039527
     2  H    0.400573   0.570963  -0.026997  -0.026332  -0.031348  -0.007008
     3  H    0.403655  -0.026997   0.554991  -0.028511  -0.032084   0.008664
     4  H    0.398337  -0.026332  -0.028511   0.578062  -0.033784  -0.005623
     5  C    0.347524  -0.031348  -0.032084  -0.033784   5.178766   0.398236
     6  H   -0.039527  -0.007008   0.008664  -0.005623   0.398236   0.603557
     7  C   -0.069335  -0.005596  -0.005620   0.008269   0.326771  -0.037591
     8  H   -0.005346   0.003978  -0.001013   0.000384  -0.043029  -0.004716
     9  H   -0.004232  -0.000667   0.004522  -0.000305  -0.037642   0.009275
    10  C    0.007186   0.000122   0.000027  -0.000423  -0.050164  -0.004427
    11  H   -0.000053   0.000051   0.000007  -0.000023  -0.004112   0.005576
    12  H    0.000385  -0.000016  -0.000118   0.000038  -0.006924  -0.002304
    13  C   -0.000252  -0.000047   0.000001   0.000013   0.006000   0.000040
    14  H    0.000008   0.000006  -0.000018   0.000000   0.000173  -0.000016
    15  H   -0.000021  -0.000020   0.000008   0.000002   0.000007   0.000063
    16  C    0.000004   0.000001   0.000000   0.000000  -0.000235  -0.000014
    17  H    0.000000   0.000000   0.000000   0.000000   0.000008  -0.000026
    18  C    0.000000   0.000000   0.000000   0.000000   0.000003   0.000000
    19  H    0.000000   0.000000   0.000000   0.000000   0.000000   0.000000
    20  H    0.000000   0.000000   0.000000   0.000000   0.000000   0.000000
    21  H    0.000000   0.000000   0.000000   0.000000   0.000000   0.000000
    22  C   -0.060754   0.007861  -0.012754  -0.001849   0.304586  -0.046421
    23  H   -0.005636  -0.000155   0.000315   0.003208  -0.049204   0.000357
    24  H    0.003674  -0.000163   0.000543  -0.000153  -0.008672  -0.001221
    25  C    0.000000   0.000000   0.000000   0.000000   0.000007   0.000006
    26  H    0.000000   0.000000   0.000000   0.000000  -0.000001   0.000000
    27  H    0.000000   0.000000   0.000000   0.000000   0.000000  -0.000001
    28  H   -0.000001   0.000000   0.000000   0.000000   0.000023   0.000035
    29  O   -0.004135  -0.000093   0.007354  -0.000236  -0.050827   0.004540
    30  O   -0.000080   0.000014  -0.000229   0.000008  -0.001927  -0.000500
              7          8          9         10         11         12
     1  C   -0.069335  -0.005346  -0.004232   0.007186  -0.000053   0.000385
     2  H   -0.005596   0.003978  -0.000667   0.000122   0.000051  -0.000016
     3  H   -0.005620  -0.001013   0.004522   0.000027   0.000007  -0.000118
     4  H    0.008269   0.000384  -0.000305  -0.000423  -0.000023   0.000038
     5  C    0.326771  -0.043029  -0.037642  -0.050164  -0.004112  -0.006924
     6  H   -0.037591  -0.004716   0.009275  -0.004427   0.005576  -0.002304
     7  C    4.998336   0.411975   0.404909   0.354660  -0.043024  -0.034070
     8  H    0.411975   0.595715  -0.033563  -0.040388  -0.007368   0.009213
     9  H    0.404909  -0.033563   0.560860  -0.035599   0.008307  -0.008788
    10  C    0.354660  -0.040388  -0.035599   4.946810   0.402738   0.384923
    11  H   -0.043024  -0.007368   0.008307   0.402738   0.616533  -0.037385
    12  H   -0.034070   0.009213  -0.008788   0.384923  -0.037385   0.613929
    13  C   -0.050260  -0.004916  -0.002992   0.367252  -0.041356  -0.034479
    14  H   -0.003959  -0.000561   0.003653  -0.041080   0.009577  -0.007654
    15  H   -0.005845   0.005530  -0.000639  -0.042404  -0.007128   0.008685
    16  C    0.006129  -0.000085   0.000078  -0.053165  -0.003722  -0.003361
    17  H   -0.000163   0.000052  -0.000002  -0.007267   0.005948  -0.000410
    18  C   -0.000247  -0.000027   0.000001   0.007585   0.000045   0.000006
    19  H   -0.000011   0.000008  -0.000011  -0.000045   0.000020   0.000008
    20  H    0.000014   0.000001   0.000000  -0.000414  -0.000009   0.000015
    21  H   -0.000029  -0.000011   0.000004   0.000054   0.000015   0.000001
    22  C   -0.066947   0.008488  -0.014566  -0.001576  -0.000636   0.003305
    23  H    0.007680  -0.000307   0.001070  -0.000450  -0.000133  -0.000467
    24  H   -0.011568  -0.000024   0.000138   0.003413  -0.000028  -0.000343
    25  C    0.000044  -0.000013  -0.000003  -0.005582  -0.001075   0.000636
    26  H    0.000013   0.000002  -0.000003   0.000052  -0.000112  -0.000133
    27  H   -0.000078   0.000006  -0.000010  -0.000758   0.000084   0.000602
    28  H   -0.000033  -0.000026   0.000066   0.002997   0.000587  -0.002221
    29  O   -0.002059  -0.000325   0.014529   0.000156   0.000010  -0.002435
    30  O    0.008105   0.000113  -0.000344  -0.004709  -0.000046   0.015483
             13         14         15         16         17         18
     1  C   -0.000252   0.000008  -0.000021   0.000004   0.000000   0.000000
     2  H   -0.000047   0.000006  -0.000020   0.000001   0.000000   0.000000
     3  H    0.000001  -0.000018   0.000008   0.000000   0.000000   0.000000
     4  H    0.000013   0.000000   0.000002   0.000000   0.000000   0.000000
     5  C    0.006000   0.000173   0.000007  -0.000235   0.000008   0.000003
     6  H    0.000040  -0.000016   0.000063  -0.000014  -0.000026   0.000000
     7  C   -0.050260  -0.003959  -0.005845   0.006129  -0.000163  -0.000247
     8  H   -0.004916  -0.000561   0.005530  -0.000085   0.000052  -0.000027
     9  H   -0.002992   0.003653  -0.000639   0.000078  -0.000002   0.000001
    10  C    0.367252  -0.041080  -0.042404  -0.053165  -0.007267   0.007585
    11  H   -0.041356   0.009577  -0.007128  -0.003722   0.005948   0.000045
    12  H   -0.034479  -0.007654   0.008685  -0.003361  -0.000410   0.000006
    13  C    4.960540   0.401815   0.409704   0.367583  -0.048346  -0.066428
    14  H    0.401815   0.600137  -0.036479  -0.037732   0.009893  -0.004639
    15  H    0.409704  -0.036479   0.608131  -0.040270  -0.006051  -0.006573
    16  C    0.367583  -0.037732  -0.040270   5.033894   0.409457   0.377174
[...]
 021224,0.00018347,-0.00005370,-0.00002588,-0.00000457,-0.00006822,0.00
 098743,-0.00067540,0.00007299,0.00004065,-0.00010656,-0.00000735,0.000
 04211,0.00000423,-0.00006352,0.00001052,0.00002320,-0.00003185,0.00002
 282,0.00005021,-0.00001073,-0.00001333,0.00001256,-0.00002072,-0.00001
 510,-0.00003492,0.00000157,0.00000699,0.00000481,-0.00001239,-0.000010
 92,0.00000069,-0.00000054,0.00000881,-0.00000412,-0.00000539,0.0604364
 2,0.04787883,0.02870405,-0.00336444,-0.00485789,-0.00313993,-0.0109983
 9,-0.05371108,-0.00168558,-0.00092048,-0.00075779,0.00023789,-0.000250
 06,0.00025473,0.00013914,0.00023555,0.00022405,0.00009357,-0.00002308,
 -0.00005793,0.00128441,0.00290839,0.00077006,0.00006865,-0.00010643,0.
 00010514,-0.00022923,-0.00110366,-0.00067190,0.00017443,0.00016069,-0.
 00010718,-0.00001029,-0.00000967,0.00003153,-0.00014858,-0.00098021,0.
 00013294,-0.00010854,0.00037473,-0.00007676,0.00049442,0.00045178,0.00
 022689,0.00008754,0.00036884,-0.00014435,0.00000391,-0.00004134,0.0000
 1729,-0.00017293,0.00004887,0.00010136,0.00008578,0.00003842,0.0001055
 5,-0.00000358,-0.00000384,-0.00000951,-0.00003340,-0.00003026,-0.00004
 693,0.00000584,-0.00000042,0.00001286,-0.00004726,-0.00000506,0.000001
 43,0.00001194,-0.00000115,0.00000250,-0.06068597,-0.07074661,-0.040253
 98,0.01005418,0.00826951,0.00619462,0.06906989,0.08481475,0.04427463,-
 0.00004344,0.00002853,0.00002275,0.00002195,0.00002397,-0.00000105,0.0
 0000977,-0.00000541,-0.00000116,-0.00002920,-0.00000863,0.00000129,0.0
 0001822,0.00012540,-0.00004480,-0.00002288,-0.00000783,0.00002964,-0.0
 0001787,-0.00022635,0.00013998,-0.00001586,0.00027134,0.00004050,0.000
 08260,0.00000536,0.00001943,0.00048684,-0.00083831,-0.00050978,-0.0000
 4600,-0.00019855,0.00027049,-0.00085477,-0.00057405,-0.00037848,-0.000
 35403,-0.03037332,-0.00392975,0.00102066,0.00030598,0.00080208,-0.0050
 4219,-0.00257414,-0.00250503,-0.07806933,-0.00091918,-0.00042471,-0.00
 016708,0.00180855,0.00015629,-0.00196138,0.02961512,0.00417690,0.00093
 731,-0.00041787,-0.00071929,0.00062230,0.00093842,0.00002038,-0.004523
 25,0.00260387,0.00317818,-0.00006182,-0.00020031,0.00004209,-0.0000317
 2,0.00005042,0.00000005,-0.00005191,-0.00006425,-0.00002939,0.57002600
 ,0.00006634,-0.00002476,-0.00003245,-0.00000845,-0.00000595,-0.0000035
 1,-0.00000242,0.00000087,0.00000054,0.00002008,0.00001502,0.00000663,0
 .00007146,0.00009460,0.00010543,-0.00000025,0.00000304,-0.00000367,0.0
 0054747,-0.00038828,-0.00036642,-0.00014800,-0.00005284,-0.00005636,-0
 .00001042,0.00001214,-0.00001102,-0.00033825,0.00092755,0.00028211,-0.
 00003734,-0.00002589,0.00008527,-0.00011429,-0.00066702,-0.00001978,-0
 .00623928,-0.01504758,-0.00412220,0.00131518,0.00122429,0.00084580,-0.
 00072378,0.00106459,0.00023713,0.00125796,-0.17627250,-0.00880739,0.00
 020359,-0.01816374,-0.00169628,0.00571108,-0.01668903,-0.00512520,-0.0
 0129500,0.00118108,0.00090349,-0.00128337,0.00076627,0.00067654,0.0004
 4876,0.00077397,-0.00040199,0.00002897,0.00009757,-0.00001361,-0.00000
 189,-0.00001750,-0.00000194,0.00004376,-0.00000220,-0.00000728,-0.0052
 0573,0.45713495,0.00000276,0.00000244,0.00002084,0.00000467,0.00000150
 ,-0.00000807,-0.00000060,-0.00000245,-0.00000628,-0.00002135,0.0000005
 4,0.00000330,0.00004306,0.00011213,-0.00004738,0.00000575,0.00000604,-
 0.00000116,0.00035598,-0.00053165,0.00009509,-0.00014375,-0.00003519,-
 0.00011654,-0.00003457,0.00001118,-0.00004784,-0.00058883,0.00081879,-
 0.00010174,-0.00011717,-0.00006635,0.00013867,0.00028690,-0.00078449,0
 .00036187,-0.00177936,-0.01628909,-0.00276027,0.00034340,-0.00123129,0
 .00047616,-0.00258973,-0.00161393,-0.00088974,0.00082300,-0.00646972,-
 0.07947616,-0.00000371,0.03057480,0.00368391,0.00231949,-0.02079990,-0
 .00314003,-0.00036491,-0.00104795,0.00055415,-0.00106828,0.00067209,0.
 00046526,0.00276275,-0.00206010,-0.00174957,-0.00001415,-0.00005960,0.
 00000395,-0.00001320,0.00002190,0.00000610,0.00015471,0.00009478,-0.00
 005804,-0.00237499,-0.00565042,0.56053700,-0.00001512,0.00001446,0.000
 02984,0.00000709,-0.00000115,-0.00000583,0.00000539,0.00000023,-0.0000
 0426,-0.00003329,-0.00000573,0.00000395,0.00003003,0.00000644,-0.00006
 530,0.00000405,0.00000146,0.00001001,0.00014708,-0.00020172,0.00004878
 ,-0.00011696,-0.00005317,-0.00004779,-0.00000970,0.00001084,-0.0000061
 8,-0.00008425,0.00034288,-0.00023230,-0.00000111,-0.00008773,0.0000570
 6,0.00036348,-0.00032351,-0.00002633,0.00088218,0.00013857,0.00087580,
 0.00004798,0.00014521,0.00005579,0.00000174,-0.00006958,-0.00008325,-0
 .00055979,0.00053679,0.00062568,0.00011429,-0.00055838,0.00031079,0.00
 071671,0.00087565,0.00045775,-0.00003720,-0.00003427,0.00001602,0.0005
 4833,-0.00000786,-0.00016100,0.00024986,-0.00008777,0.00012390,0.00003
 593,-0.00002552,-0.00003282,-0.00002921,0.00001060,0.00000633,0.000095
 23,-0.00000030,-0.00005878,-0.23634794,-0.06400187,-0.09546449,0.25634
 278,-0.00003530,0.00002038,0.00001797,0.00001151,0.00000861,-0.0000007
 0,0.00000362,-0.00000331,-0.00000315,-0.00002196,-0.00000858,-0.000000
 04,-0.00001073,0.00002872,-0.00005039,-0.00000257,0.00000158,0.0000077
 5,-0.00016641,0.00009889,0.00012791,0.00005926,0.00010496,0.00003177,0
 .00001682,-0.00001488,-0.00000701,0.00071514,-0.00023015,-0.00029259,-
 0.00005042,0.00000829,0.00005802,-0.00017628,0.00026368,0.00009284,0.0
 0199245,-0.00664473,0.00016374,0.00017465,0.00011434,-0.00012523,-0.00
 180249,-0.00085870,-0.00093518,-0.02897022,-0.00973782,-0.01552674,0.0
 0000857,0.00113526,0.00065199,-0.00154914,0.00143120,0.00011514,0.0001
 6904,-0.00002608,0.00000050,0.00101101,-0.00006326,-0.00003469,0.00005
 034,0.00030448,0.00044653,-0.00003883,-0.00012595,0.00001882,-0.000011
 00,0.00003010,0.00000405,-0.00000441,-0.00000315,-0.00001121,-0.062682
 21,-0.06715966,-0.03127706,0.06984874,0.07498934,-0.00000392,0.0000039
 2,0.00000508,0.00000216,-0.00000097,-0.00000049,0.00000202,0.00000051,
 -0.00000097,-0.00000675,-0.00000221,0.00000117,-0.00002052,-0.00000545
 ,-0.00001628,-0.00000182,-0.00000203,0.00000328,-0.00012794,0.00015518
 ,0.00003132,0.00007501,0.00003436,0.00003619,0.00002328,0.00000709,0.0
 0001790,0.00034304,-0.00014142,0.00008391,-0.00005377,-0.00003320,0.00
 001202,-0.00015151,0.00023964,-0.00009997,0.00054716,-0.00115728,0.000
 45428,0.00033151,0.00017534,0.00046468,-0.00041870,-0.00033847,0.00021
 863,-0.00224881,-0.00028247,-0.00256440,0.00043783,-0.00021276,0.00041
 146,-0.00070305,0.00013244,-0.00011385,-0.00011567,-0.00003706,-0.0000
 8118,0.00050754,-0.00032482,0.00014357,0.00025861,0.00019768,0.0000545
 5,0.00000847,-0.00000426,-0.00000186,-0.00000555,0.00000232,0.00000184
 ,-0.00001470,-0.00002110,-0.00000106,-0.09494697,-0.03181650,-0.094870
 23,0.10486456,0.03593400,0.09895494,-0.00001631,0.00000542,-0.00000935
 ,0.00000213,0.00000710,0.00000376,-0.00000299,-0.00000367,-0.00000075,
 0.00000570,-0.00000130,-0.00000150,0.00002270,0.00000597,0.00001999,0.
 00000365,0.00000909,-0.00000916,0.00000764,0.00000883,-0.00002957,0.00
 000925,0.00000136,-0.00000136,-0.00003142,-0.00001961,-0.00003368,-0.0
 0014515,-0.00004101,-0.00001934,0.00006407,0.00016001,-0.00008252,-0.0
 0007755,-0.00000980,0.00014249,0.00043314,-0.00051624,0.00120443,0.000
 15979,-0.00001070,-0.00017343,-0.00002655,0.00011710,-0.00008899,-0.00
 110404,-0.00059963,0.00057024,0.00067454,-0.00022406,0.00008053,0.0000
 6677,0.00031164,-0.00094339,0.00016583,0.00020327,0.00025791,0.0000003
 1,0.00004336,-0.00013276,-0.00006719,-0.00017011,0.00017472,-0.0000506
 7,-0.00009025,0.00001507,0.00001591,0.00001378,0.00000020,-0.00000289,
 0.00004595,0.00001456,-0.04897502,0.00909919,-0.01709521,-0.00148952,0
 .01330541,-0.02511440,0.04776452,-0.00001009,0.00000214,0.00000362,0.0
 0000172,0.00000302,0.00000300,-0.00000241,0.00000003,-0.00000164,-0.00
 000112,-0.00000240,-0.00000149,-0.00000480,-0.00001070,-0.00000700,0.0
 0000736,0.00000055,-0.00000649,-0.00005175,0.00003837,0.00002176,0.000
 00650,0.00000466,0.00000669,-0.00003727,-0.00001188,-0.00002247,-0.000
 16913,-0.00005458,-0.00009877,0.00019448,0.00004448,-0.00014853,-0.000
 12052,-0.00002494,0.00007112,0.00100862,0.00146869,0.00159537,-0.00063
 492,0.00024601,-0.00105383,0.00022072,0.00046434,-0.00035106,0.0024681
 8,-0.01707457,0.03085480,0.00001638,-0.00663184,-0.00131331,-0.0008213
 2,0.00139110,0.00128261,0.00049581,0.00014649,-0.00100260,0.00003937,-
 0.00003035,-0.00011006,-0.00021623,0.00036823,-0.00035730,-0.00000977,
 -0.00002980,0.00000549,0.00000262,0.00000392,-0.00000120,-0.00000596,0
 .00001046,0.00000306,0.00886894,-0.09738964,0.10089349,0.00020142,0.00
 396890,-0.00883407,-0.00965611,0.10885401,0.00003620,-0.00001918,-0.00
 000316,-0.00000847,-0.00001132,-0.00000469,0.00000147,0.00000442,0.000
 00603,0.00001069,0.00000683,-0.00000004,-0.00003824,-0.00000207,-0.000
 00589,-0.00000476,-0.00001382,0.00001199,-0.00003257,0.00000248,-0.000
 02260,0.00000941,-0.00000008,0.00000765,0.00002936,0.00002257,0.000036
 27,0.00013283,0.00015364,0.00006905,-0.00004238,-0.00013486,0.00005103
 ,0.00002603,0.00009753,-0.00017288,-0.00001585,-0.00031498,0.00086946,
 0.00048619,0.00042854,0.00030383,0.00014668,0.00004838,0.00022313,0.00
 050599,-0.00097051,0.00248748,0.00001515,-0.00105255,0.00146670,-0.000
 05341,-0.00035635,0.00091487,-0.00037962,0.00028642,0.00024179,0.00004
 913,0.00002824,-0.00008503,-0.00009900,0.00008077,0.00024261,0.0000596
 0,0.00016468,-0.00001500,-0.00000846,-0.00002786,-0.00000494,-0.000025
 66,-0.00004990,0.00000660,-0.01691572,0.10105662,-0.24891451,-0.000417
 41,0.00534116,-0.01194962,0.01884601,-0.11233690,0.27040976,0.00001575
 ,-0.00000481,-0.00001136,-0.00000359,-0.00000167,0.00000158,-0.0000041
 0,-0.00000011,-0.00000135,0.00001117,0.00000455,0.00000057,0.00004582,
 0.00001226,0.00004375,0.00000161,0.00000867,-0.00000893,0.00015453,-0.
 00019037,-0.00011109,-0.00006865,-0.00005545,-0.00003590,-0.00001010,0
 .00000627,-0.00000627,-0.00096177,-0.00041266,-0.00022935,0.00003206,0
 .00012286,0.00002808,-0.00097264,-0.00137664,-0.00035774,-0.00004513,0
 .00040667,-0.00020704,-0.00001954,-0.00005685,-0.00006386,0.00011299,0
 .00009372,0.00012803,0.00083095,-0.00048096,-0.00161759,0.00018958,0.0
 0053638,-0.00023448,0.00058151,0.00068874,-0.00049203,-0.00002352,-0.0
 0012673,0.00000458,0.00049254,-0.00020614,0.00000689,0.00011751,-0.000
 01295,0.00031904,-0.00002913,-0.00000571,-0.00000634,0.00002228,0.0000
 0111,0.00000156,-0.00001529,0.00001664,0.00001290,-0.19662578,0.060635
 78,0.11464204,-0.02073891,0.00812315,0.01655399,0.00250335,-0.00180866
 ,-0.00224319,0.21438189,0.00002347,-0.00001920,-0.00001422,-0.00000683
 ,-0.00000297,-0.00000025,-0.00000163,0.00000144,0.00000598,0.00002418,
 0.00000533,-0.00000380,-0.00007667,-0.00001147,0.00002725,-0.00001029,
 -0.00001255,0.00000395,-0.00031514,0.00026800,0.00010191,0.00016975,0.
 00009782,0.00005888,0.00007389,0.00001457,0.00006093,-0.00014931,-0.00
 038343,-0.00015098,-0.00010502,-0.00014510,0.00011997,-0.00095321,0.00
 008874,-0.00019940,0.00070574,0.00117731,0.00003136,-0.00011559,-0.000
 05910,0.00000442,0.00008747,0.00007641,0.00020530,0.02597991,-0.008060
 98,-0.01942496,0.00000293,0.00135224,0.00065253,-0.00163741,-0.0068493
 6,0.00012385,-0.00018837,0.00008136,-0.00017840,-0.00007284,0.00010617
 ,0.00029950,0.00170782,-0.00080252,-0.00125995,-0.00000289,0.00007349,
 0.00000658,0.00001636,-0.00001512,-0.00000543,-0.00006381,0.00001243,0
 .00004051,0.05946623,-0.07134253,-0.04524076,-0.00668941,0.00229073,0.
 00630852,-0.01201647,0.00424407,0.00763530,-0.06589393,0.07787045,-0.0
 0002364,0.00000965,-0.00002508,0.00000415,0.00001265,0.00000828,-0.000
 00298,-0.00000543,0.00000116,0.00001668,-0.00000309,-0.00000288,-0.000
 00720,-0.00001209,0.00005625,-0.00000461,0.00000904,-0.00001038,-0.000
 29140,0.00041773,-0.00002643,0.00016322,0.00013043,0.00008678,0.000011
 74,-0.00003427,-0.00000310,0.00057540,-0.00078152,0.00030533,-0.000021
 25,0.00016062,-0.00011167,-0.00076750,0.00038774,0.00010189,0.00076231
 ,-0.00012109,-0.00021197,0.00005031,-0.00002959,-0.00000377,-0.0001400
 1,0.00003198,0.00004179,0.00105986,0.00012275,-0.00267045,-0.00042768,
 -0.00029643,0.00060477,-0.00060103,-0.00105594,0.00073092,-0.00028752,
 0.00020377,0.00046563,0.00025717,0.00009258,0.00000700,0.00043195,-0.0
 0010138,0.00027556,-0.00009596,-0.00013565,0.00003604,0.00002922,0.000
 01874,-0.00000029,-0.00010709,-0.00000589,0.00005704,0.11384545,-0.046
 10552,-0.13414139,-0.01092434,0.00525684,0.00879194,0.02243126,-0.0090
 7631,-0.01619033,-0.12609907,0.05081968,0.14185517,0.00083890,0.000246
 13,0.00080537,0.00008276,0.00000086,0.00034518,0.00037912,0.00044018,0
 .00047122,-0.00001434,0.00007688,0.00005569,0.00384675,0.00287278,-0.0
 1251724,0.00064837,0.00302247,-0.00013137,-0.00001203,-0.00032524,-0.0
 0024439,0.00030138,0.00011828,-0.00055940,-0.00013035,0.00057654,-0.00
 089892,-0.00020679,-0.00026632,-0.00003616,0.00000033,-0.00011379,-0.0
 0002507,0.00029148,-0.00023650,-0.00009484,0.00011276,0.00013243,-0.00
 011581,-0.00002945,-0.00001685,0.00002674,-0.00006344,0.00008015,0.000
 04275,-0.00000424,-0.00001083,0.00005646,0.00000899,0.00000647,-0.0000
 0049,-0.00000903,0.00000972,-0.00003000,0.00000198,-0.00000739,0.00001
 077,-0.00002571,-0.00000840,-0.00000082,-0.00000273,0.00001844,0.00000
 860,-0.06737903,0.01712384,-0.01822490,0.01103188,-0.01238573,0.018716
 17,-0.01844438,-0.01321321,-0.02882217,0.00005105,-0.00000089,-0.00007
 306,-0.00006004,0.00001297,0.00000488,0.00002159,-0.00000458,-0.000010
 56,-0.00001256,0.00001494,0.00007385,0.13998858,-0.00000936,0.00163555
 ,0.00063062,0.00010680,0.00040671,0.00027298,-0.00006713,0.00009785,-0
 .00016846,-0.00033411,-0.00012619,0.00014984,0.01185213,-0.01461769,0.
 03833528,0.00226534,-0.00768711,-0.00043974,-0.00122641,0.00110841,-0.
 00009184,-0.00016663,0.00008100,0.00027687,0.00052676,-0.00043587,0.00
 063155,-0.00023510,-0.00106003,0.00002562,-0.00001066,0.00014475,0.000
 00338,0.00023120,0.00033776,0.00010172,0.00010415,0.00033853,0.0001585
 6,0.00001368,-0.00003875,-0.00003443,-0.00009588,0.00006024,0.00005513
 ,-0.00002123,-0.00014178,-0.00009690,0.00000163,0.00002633,-0.00000714
 ,0.00005338,0.00007290,0.00004772,-0.00000469,-0.00000724,-0.00001670,
 0.00005321,-0.00000453,-0.00000307,-0.00002511,0.00002301,0.00000888,-
 0.00737998,-0.10007492,0.04222331,-0.00184174,0.00353705,0.00857433,0.
 00310437,0.02267750,-0.01790548,0.00010200,-0.00002799,-0.00002578,0.0
 0000680,0.00004135,0.00000932,0.00002216,0.00000335,-0.00004941,-0.000
 00831,-0.00002563,0.00006351,0.06148965,0.17648816,0.00027958,0.000067
 77,0.00078421,0.00011528,-0.00013783,0.00012669,0.00043540,0.00011684,
 0.00044896,-0.00000119,-0.00010741,-0.00010960,-0.00492881,0.00922530,
 -0.00905078,0.00049266,0.00148727,0.00133434,0.00202538,-0.00058339,-0
 .00085407,0.00007084,-0.00037304,0.00092411,-0.00069805,-0.00008470,0.
 00186453,-0.00053332,0.00002291,0.00027923,0.00025372,-0.00013684,0.00
 023078,0.00007573,0.00004892,-0.00030796,0.00000452,0.00006693,-0.0001
 0646,-0.00008177,-0.00002404,0.00010031,-0.00000809,0.00001005,0.00002
 169,-0.00003900,-0.00000381,0.00002352,0.00002576,-0.00001595,0.000031
 64,-0.00000234,0.00001417,-0.00001392,-0.00000912,-0.00000756,0.000015
 21,0.00000606,0.00000209,0.00000455,-0.00000473,-0.00000057,-0.0000020
 2,-0.00399350,0.07744807,-0.19090091,-0.00965779,0.00886687,-0.0385013
 1,-0.04273589,-0.04242019,-0.02565321,0.00005928,0.00000525,-0.0000692
 5,0.00001311,-0.00000422,0.00001620,-0.00003702,-0.00001095,0.00004651
 ,-0.00000195,0.00001066,-0.00001158,0.09521217,-0.04205452,0.32943763,
 0.00112613,-0.00042695,-0.00010343,-0.00024964,-0.00037535,-0.00044145
 ,-0.00025752,-0.00034311,-0.00014287,0.00024403,0.00016627,0.00001528,
 -0.00583071,-0.00174537,-0.00298585,-0.00005899,0.00092742,-0.00026771
 ,-0.00029221,-0.00011195,0.00089365,0.00017866,0.00012272,-0.00010095,
 -0.00008826,-0.00011658,-0.00035232,-0.00034954,-0.00111437,-0.0009991
 1,-0.00020654,0.00062236,-0.00009068,-0.00036562,0.00166947,0.00064082
 ,0.00025260,0.00033044,0.00006805,0.00008620,-0.00007820,-0.00010397,-
 0.00016112,0.00009796,0.00007171,0.00009209,-0.00000083,-0.00000403,-0
 .00002785,0.00001742,-0.00002889,-0.00000306,-0.00000651,-0.00000889,0
 .00001205,-0.00000244,-0.00000269,-0.00003024,-0.00001023,-0.00000671,
 0.00000216,0.00001608,0.00000579,0.01693430,-0.01204655,0.03331780,0.0
 0005489,-0.00106630,-0.00237815,-0.02334006,-0.02633262,0.01019664,-0.
 00003525,-0.00003836,0.00000281,-0.00006911,0.00001927,-0.00002598,0.0
 0006842,0.00002250,-0.00005943,0.00003716,0.00002614,0.00008872,-0.071
 21179,-0.06850692,-0.03633690,0.08348880,0.00140882,-0.00068371,0.0000
 6759,-0.00028848,-0.00072066,-0.00042145,0.00005545,0.00003150,-0.0000
 6410,0.00017419,0.00001670,0.00011786,-0.00473065,0.00066651,0.0008159
 4,0.00040399,-0.00033837,-0.00009068,-0.00002219,0.00041201,0.00061157
 ,0.00005260,0.00005064,-0.00016446,0.00002357,-0.00020025,-0.00044176,
 0.00056043,-0.00030154,0.00030178,0.00009810,-0.00024270,-0.00000560,0
 .00031695,-0.00077888,-0.00009770,0.00005675,0.00009440,0.00021068,-0.
 00002015,0.00001939,-0.00001830,-0.00001042,0.00003594,-0.00000140,-0.
 00004158,-0.00009487,-0.00009238,0.00000159,0.00001528,0.00000067,0.00
 004409,0.00006362,0.00004215,-0.00000453,-0.00000488,-0.00001089,0.000
 04484,-0.00000337,-0.00000360,-0.00002149,0.00001740,0.00000746,-0.054
 74619,-0.09412394,0.03622924,-0.00112178,-0.00050275,-0.00258841,0.009
 06015,0.00069022,-0.00556886,0.00008203,-0.00001879,-0.00002396,0.0000
 0789,0.00003547,0.00001378,-0.00000068,-0.00000211,-0.00001779,-0.0000
 1488,-0.00003062,0.00002652,-0.05965301,-0.08283272,-0.01142809,0.1082
 8458,0.17873107,-0.00005213,0.00174237,-0.00035432,0.00013923,0.000748
 76,0.00011739,-0.00007484,-0.00006897,0.00016212,-0.00023215,-0.000173
 16,0.00009583,-0.00073061,-0.00151654,-0.00045693,-0.00019237,0.000613
 26,0.00016275,0.00028052,0.00085061,0.00030828,-0.00020978,-0.00006069
 ,0.00010106,-0.00020891,-0.00008740,-0.00005612,0.00009489,0.00051789,
 -0.00000431,0.00003195,-0.00000674,-0.00001626,-0.00024149,-0.00042034
 ,0.00001441,-0.00019686,-0.00030852,-0.00007670,-0.00000028,0.00003357
 ,-0.00001111,0.00014885,-0.00004792,-0.00007356,-0.00005398,-0.0000009
 1,-0.00000815,-0.00000080,0.00001179,0.00000063,0.00000057,0.00000225,
 0.00000941,-0.00000153,0.00000063,-0.00000789,0.00001607,0.00000461,0.
 00000363,-0.00000135,-0.00000499,-0.00000365,0.09062237,0.10848134,0.0
 1795753,-0.00227026,-0.00016790,-0.00193738,-0.03196404,-0.06205198,0.
 01531942,-0.00002365,0.00003674,0.00005189,0.00003074,-0.00000081,-0.0
 0000304,0.00001125,-0.00000701,-0.00002609,-0.00001548,-0.00003894,-0.
 00001626,-0.05404468,-0.03067516,-0.07010903,-0.00086126,-0.01740582,0
 .03885645\\0.00000155,-0.00000302,-0.00000193,0.00000245,-0.00000304,-
 0.00000194,0.00000151,-0.00000302,-0.00000146,0.00000129,-0.00000448,-
 0.00000169,0.00000105,-0.00000192,-0.00000083,0.00000047,-0.00000371,-
 0.00000100,0.00000106,-0.00000037,-0.00000045,0.00000200,-0.00000073,-
 0.00000053,0.00000059,-0.00000107,-0.00000083,0.00000022,0.00000033,0.
 ,0.00000041,-0.00000143,-0.00000055,-0.00000012,-0.00000109,0.00000095
 ,0.00000030,0.00000184,0.00000008,-0.00000014,0.00000194,0.00000009,0.
 00000181,0.00000184,-0.00000057,-0.00000028,0.00000271,0.00000060,0.00
 000028,0.00000203,0.00000026,0.00000036,0.00000408,0.00000034,0.000000
 07,0.00000468,0.00000061,0.00000011,0.00000475,0.00000075,0.00000154,0
 .00000415,-0.00000017,-0.00000057,-0.00000261,0.00000040,-0.00000124,-
 0.00000470,0.00000004,-0.00000233,-0.00000258,0.00000051,-0.00000151,0
 .00000264,0.00000137,-0.00000214,0.00000293,0.00000196,-0.00000156,0.0
 0000254,0.00000146,-0.00000228,0.00000122,0.00000120,-0.00000184,-0.00
 000206,0.00000056,-0.00000305,-0.00000186,0.00000079\\\@
 Job cpu time:  0 days 13 hours 31 minutes 19.8 seconds.
 File lengths (MBytes):  RWF=  71783 Int=      0 D2E=      0 Chk=     26 Scr=      1
 Normal termination of Gaussian 09 at Sat Feb 22 08:52:15 2014.
