 Entering Gaussian System, Link 0=g09
 Initial command:
 /usr/caen/gaussian-09revc/g09/l1.exe /scratch/avioli_flux/hetanjin/scratch/Gau-83350.inp -scrdir=/scratch/avioli_flux/hetanjin/scratch/
 Entering Link 1 = /usr/caen/gaussian-09revc/g09/l1.exe PID=     83351.
  
 Copyright (c) 1988,1990,1992,1993,1995,1998,2003,2009,2011,
            Gaussian, Inc.  All Rights Reserved.
  
 This is part of the Gaussian(R) 09 program.  It is based on
 the Gaussian(R) 03 system (copyright 2003, Gaussian, Inc.),
 the Gaussian(R) 98 system (copyright 1998, Gaussian, Inc.),
 the Gaussian(R) 94 system (copyright 1995, Gaussian, Inc.),
 the Gaussian 92(TM) system (copyright 1992, Gaussian, Inc.),
 the Gaussian 90(TM) system (copyright 1990, Gaussian, Inc.),
 the Gaussian 88(TM) system (copyright 1988, Gaussian, Inc.),
 the Gaussian 86(TM) system (copyright 1986, Carnegie Mellon
 University), and the Gaussian 82(TM) system (copyright 1983,
 Carnegie Mellon University). Gaussian is a federally registered
 trademark of Gaussian, Inc.
  
 This software contains proprietary and confidential information,
 including trade secrets, belonging to Gaussian, Inc.
  
 This software is provided under written license and may be
 used, copied, transmitted, or stored only in accord with that
 written license.
  
 The following legend is applicable only to US Government
 contracts under FAR:
  
                    RESTRICTED RIGHTS LEGEND
  
 Use, reproduction and disclosure by the US Government is
 subject to restrictions as set forth in subparagraphs (a)
 and (c) of the Commercial Computer Software - Restricted
 Rights clause in FAR 52.227-19.
  
 Gaussian, Inc.
 340 Quinnipiac St., Bldg. 40, Wallingford CT 06492
  
  
 ---------------------------------------------------------------
 Warning -- This program may not be used in any manner that
 competes with the business of Gaussian, Inc. or will provide
 assistance to any competitor of Gaussian, Inc.  The licensee
 of this program is prohibited from giving any competitor of
 Gaussian, Inc. access to this program.  By using this program,
 the user acknowledges that Gaussian, Inc. is engaged in the
 business of creating and licensing software in the field of
 computational chemistry and represents and warrants to the
 licensee that it is not a competitor of Gaussian, Inc. and that
 it will not use this program in any manner prohibited above.
 ---------------------------------------------------------------
  

 Cite this work as:
 Gaussian 09, Revision C.01,
 M. J. Frisch, G. W. Trucks, H. B. Schlegel, G. E. Scuseria, 
 M. A. Robb, J. R. Cheeseman, G. Scalmani, V. Barone, B. Mennucci, 
 G. A. Petersson, H. Nakatsuji, M. Caricato, X. Li, H. P. Hratchian, 
 A. F. Izmaylov, J. Bloino, G. Zheng, J. L. Sonnenberg, M. Hada, 
 M. Ehara, K. Toyota, R. Fukuda, J. Hasegawa, M. Ishida, T. Nakajima, 
 Y. Honda, O. Kitao, H. Nakai, T. Vreven, J. A. Montgomery, Jr., 
 J. E. Peralta, F. Ogliaro, M. Bearpark, J. J. Heyd, E. Brothers, 
 K. N. Kudin, V. N. Staroverov, T. Keith, R. Kobayashi, J. Normand, 
 K. Raghavachari, A. Rendell, J. C. Burant, S. S. Iyengar, J. Tomasi, 
 M. Cossi, N. Rega, J. M. Millam, M. Klene, J. E. Knox, J. B. Cross, 
 V. Bakken, C. Adamo, J. Jaramillo, R. Gomperts, R. E. Stratmann, 
 O. Yazyev, A. J. Austin, R. Cammi, C. Pomelli, J. W. Ochterski, 
 R. L. Martin, K. Morokuma, V. G. Zakrzewski, G. A. Voth, 
 P. Salvador, J. J. Dannenberg, S. Dapprich, A. D. Daniels, 
 O. Farkas, J. B. Foresman, J. V. Ortiz, J. Cioslowski, 
 and D. J. Fox, Gaussian, Inc., Wallingford CT, 2010.
 
 ******************************************
 Gaussian 09:  EM64L-G09RevC.01 23-Sep-2011
                17-Feb-2014 
 ******************************************
 %mem=30GB
 %nprocshared=8
 Will use up to    8 processors via shared memory.
 %chk=TS_1_1c.chk
 -------------------------------
 #p cbs-qb3 opt=(TS,calcfc) freq
 -------------------------------
 1/5=1,10=4,14=-1,18=20,26=3,38=1/1,3;
 2/9=110,12=2,17=6,18=5,40=1/2;
 3/5=4,6=6,7=700,11=2,16=1,25=1,30=1,71=2,74=-5/1,2,3;
 4//1;
 5/5=2,38=5/2;
 8/6=4,10=90,11=11/1;
 11/6=1,8=1,9=11,15=111,16=1/1,2,10;
 10/6=1,7=6,13=1/2;
 6/7=2,8=2,9=2,10=2,28=1/1;
 7/10=1,18=20,25=1/1,2,3,16;
 1/5=1,10=4,14=-1,18=20/3(2);
 2/9=110/2;
 99//99;
 2/9=110/2;
 3/5=4,6=6,7=700,11=2,16=1,25=1,30=1,71=1,74=-5/1,2,3;
 4/5=5,16=3/1;
 5/5=2,38=5/2;
 7//1,2,3,16;
 1/5=1,14=-1,18=20/3(-5);
 2/9=110/2;
 6/7=2,8=2,9=2,10=2,19=2,28=1/1;
 99/9=1/99;
 Leave Link    1 at Mon Feb 17 01:46:04 2014, MaxMem= 4026531840 cpu:       0.7
 (Enter /usr/caen/gaussian-09revc/g09/l101.exe)
 ------------------------------------
 TS_1_1c using cbs-qb3 to cal. energy
 ------------------------------------
 Charge =  0 Multiplicity = 2
 Symbolic Z-Matrix:
 C                    -3.01447   1.69542  -0.13826 
 H                    -2.76076   2.34663  -0.97873 
 H                    -3.08698   2.33105   0.75654 
 H                    -3.99888   1.2577   -0.31729 
 C                    -1.967     0.62568   0.06629 
 H                    -2.07922  -0.23037  -0.96848 
 C                    -0.54516   1.11894   0.23403 
 H                    -0.41528   2.02469  -0.36909 
 H                    -0.41523   1.44485   1.27999 
 C                     0.56868   0.11877  -0.11931 
 H                     0.46002  -0.17841  -1.16895 
 H                     0.4498   -0.79523   0.46865 
 C                     1.96747   0.7074    0.10305 
 H                     2.09506   0.95431   1.16637 
 H                     2.03692   1.65935  -0.43861 
 C                     3.13661  -0.19129  -0.34246 
 H                     2.97011  -0.45258  -1.39659 
 C                     4.46415   0.57499  -0.25465 
 H                     4.67965   0.86615   0.77952 
 H                     5.2994   -0.03751  -0.6065 
 H                     4.44017   1.48712  -0.85853 
 C                    -2.43375  -0.55089   0.94652 
 H                    -1.58617  -1.16435   1.26665 
 H                    -3.0278   -0.24796   1.81495 
 C                     3.21399  -1.49799   0.46021 
 H                     4.05919  -2.10878   0.12991 
 H                     3.35306  -1.29055   1.52748 
 H                     2.31098  -2.10323   0.35068 
 O                    -3.30656  -1.30368   0.10176 
 O                    -2.58435  -1.36746  -1.12307 
 
 NAtoms=     30 NQM=        0 NQMF=       0 NMMI=     30 NMMIF=      0
                NMic=       0 NMicF=      0.
                    Isotopes and Nuclear Properties:
 (Nuclear quadrupole moments (NQMom) in fm**2, nuclear magnetic moments (NMagM)
  in nuclear magnetons)

  Atom         1           2           3           4           5           6           7           8           9          10
 IAtWgt=          12           1           1           1          12           1          12           1           1          12
 AtmWgt=  12.0000000   1.0078250   1.0078250   1.0078250  12.0000000   1.0078250  12.0000000   1.0078250   1.0078250  12.0000000
 NucSpn=           0           1           1           1           0           1           0           1           1           0
 AtZEff=   0.0000000   0.0000000   0.0000000   0.0000000   0.0000000   0.0000000   0.0000000   0.0000000   0.0000000   0.0000000
 NQMom=    0.0000000   0.0000000   0.0000000   0.0000000   0.0000000   0.0000000   0.0000000   0.0000000   0.0000000   0.0000000
 NMagM=    0.0000000   2.7928460   2.7928460   2.7928460   0.0000000   2.7928460   0.0000000   2.7928460   2.7928460   0.0000000

  Atom        11          12          13          14          15          16          17          18          19          20
 IAtWgt=           1           1          12           1           1          12           1          12           1           1
 AtmWgt=   1.0078250   1.0078250  12.0000000   1.0078250   1.0078250  12.0000000   1.0078250  12.0000000   1.0078250   1.0078250
 NucSpn=           1           1           0           1           1           0           1           0           1           1
 AtZEff=   0.0000000   0.0000000   0.0000000   0.0000000   0.0000000   0.0000000   0.0000000   0.0000000   0.0000000   0.0000000
 NQMom=    0.0000000   0.0000000   0.0000000   0.0000000   0.0000000   0.0000000   0.0000000   0.0000000   0.0000000   0.0000000
 NMagM=    2.7928460   2.7928460   0.0000000   2.7928460   2.7928460   0.0000000   2.7928460   0.0000000   2.7928460   2.7928460

  Atom        21          22          23          24          25          26          27          28          29          30
 IAtWgt=           1          12           1           1          12           1           1           1          16          16
 AtmWgt=   1.0078250  12.0000000   1.0078250   1.0078250  12.0000000   1.0078250   1.0078250   1.0078250  15.9949146  15.9949146
 NucSpn=           1           0           1           1           0           1           1           1           0           0
 AtZEff=   0.0000000   0.0000000   0.0000000   0.0000000   0.0000000   0.0000000   0.0000000   0.0000000   0.0000000   0.0000000
 NQMom=    0.0000000   0.0000000   0.0000000   0.0000000   0.0000000   0.0000000   0.0000000   0.0000000   0.0000000   0.0000000
 NMagM=    2.7928460   0.0000000   2.7928460   2.7928460   0.0000000   2.7928460   2.7928460   2.7928460   0.0000000   0.0000000
 Leave Link  101 at Mon Feb 17 01:46:04 2014, MaxMem= 4026531840 cpu:       1.8
 (Enter /usr/caen/gaussian-09revc/g09/l103.exe)

 GradGradGradGradGradGradGradGradGradGradGradGradGradGradGradGradGradGrad
 Berny optimization.
 Initialization pass.
                           ----------------------------
                           !    Initial Parameters    !
                           ! (Angstroms and Degrees)  !
 --------------------------                            --------------------------
 ! Name  Definition              Value          Derivative Info.                !
 --------------------------------------------------------------------------------
 ! R1    R(1,2)                  1.0931         calculate D2E/DX2 analytically  !
 ! R2    R(1,3)                  1.1            calculate D2E/DX2 analytically  !
 ! R3    R(1,4)                  1.0921         calculate D2E/DX2 analytically  !
 ! R4    R(1,5)                  1.5111         calculate D2E/DX2 analytically  !
 ! R5    R(5,6)                  1.3476         calculate D2E/DX2 analytically  !
 ! R6    R(5,7)                  1.5143         calculate D2E/DX2 analytically  !
 ! R7    R(5,22)                 1.5417         calculate D2E/DX2 analytically  !
 ! R8    R(7,8)                  1.0959         calculate D2E/DX2 analytically  !
 ! R9    R(7,9)                  1.1032         calculate D2E/DX2 analytically  !
 ! R10   R(7,10)                 1.5381         calculate D2E/DX2 analytically  !
 ! R11   R(10,11)                1.0963         calculate D2E/DX2 analytically  !
 ! R12   R(10,12)                1.0933         calculate D2E/DX2 analytically  !
 ! R13   R(10,13)                1.5338         calculate D2E/DX2 analytically  !
 ! R14   R(13,14)                1.099          calculate D2E/DX2 analytically  !
 ! R15   R(13,15)                1.0975         calculate D2E/DX2 analytically  !
 ! R16   R(13,16)                1.5405         calculate D2E/DX2 analytically  !
 ! R17   R(16,17)                1.0987         calculate D2E/DX2 analytically  !
 ! R18   R(16,18)                1.5353         calculate D2E/DX2 analytically  !
 ! R19   R(16,25)                1.5355         calculate D2E/DX2 analytically  !
 ! R20   R(18,19)                1.0958         calculate D2E/DX2 analytically  !
 ! R21   R(18,20)                1.0939         calculate D2E/DX2 analytically  !
 ! R22   R(18,21)                1.0942         calculate D2E/DX2 analytically  !
 ! R23   R(22,23)                1.0942         calculate D2E/DX2 analytically  !
 ! R24   R(22,24)                1.0949         calculate D2E/DX2 analytically  !
 ! R25   R(22,29)                1.429          calculate D2E/DX2 analytically  !
 ! R26   R(25,26)                1.0939         calculate D2E/DX2 analytically  !
 ! R27   R(25,27)                1.0961         calculate D2E/DX2 analytically  !
 ! R28   R(25,28)                1.0926         calculate D2E/DX2 analytically  !
 ! R29   R(29,30)                1.4233         calculate D2E/DX2 analytically  !
 ! A1    A(2,1,3)              107.2481         calculate D2E/DX2 analytically  !
 ! A2    A(2,1,4)              108.7811         calculate D2E/DX2 analytically  !
 ! A3    A(2,1,5)              111.4041         calculate D2E/DX2 analytically  !
 ! A4    A(3,1,4)              107.7906         calculate D2E/DX2 analytically  !
 ! A5    A(3,1,5)              110.1609         calculate D2E/DX2 analytically  !
 ! A6    A(4,1,5)              111.3019         calculate D2E/DX2 analytically  !
 ! A7    A(1,5,6)              106.7401         calculate D2E/DX2 analytically  !
 ! A8    A(1,5,7)              115.8024         calculate D2E/DX2 analytically  !
 ! A9    A(1,5,22)             114.0593         calculate D2E/DX2 analytically  !
 ! A10   A(6,5,7)              111.7248         calculate D2E/DX2 analytically  !
 ! A11   A(6,5,22)              85.8946         calculate D2E/DX2 analytically  !
 ! A12   A(7,5,22)             118.008          calculate D2E/DX2 analytically  !
 ! A13   A(5,7,8)              108.6348         calculate D2E/DX2 analytically  !
 ! A14   A(5,7,9)              108.1692         calculate D2E/DX2 analytically  !
 ! A15   A(5,7,10)             116.2758         calculate D2E/DX2 analytically  !
 ! A16   A(8,7,9)              105.2866         calculate D2E/DX2 analytically  !
 ! A17   A(8,7,10)             108.9766         calculate D2E/DX2 analytically  !
 ! A18   A(9,7,10)             108.9415         calculate D2E/DX2 analytically  !
 ! A19   A(7,10,11)            108.9309         calculate D2E/DX2 analytically  !
 ! A20   A(7,10,12)            109.9588         calculate D2E/DX2 analytically  !
 ! A21   A(7,10,13)            112.1828         calculate D2E/DX2 analytically  !
 ! A22   A(11,10,12)           106.1115         calculate D2E/DX2 analytically  !
 ! A23   A(11,10,13)           109.465          calculate D2E/DX2 analytically  !
 ! A24   A(12,10,13)           110.0015         calculate D2E/DX2 analytically  !
 ! A25   A(10,13,14)           109.4119         calculate D2E/DX2 analytically  !
 ! A26   A(10,13,15)           108.605          calculate D2E/DX2 analytically  !
 ! A27   A(10,13,16)           115.2352         calculate D2E/DX2 analytically  !
 ! A28   A(14,13,15)           105.9799         calculate D2E/DX2 analytically  !
 ! A29   A(14,13,16)           108.8297         calculate D2E/DX2 analytically  !
 ! A30   A(15,13,16)           108.3772         calculate D2E/DX2 analytically  !
 ! A31   A(13,16,17)           107.5295         calculate D2E/DX2 analytically  !
 ! A32   A(13,16,18)           110.3976         calculate D2E/DX2 analytically  !
 ! A33   A(13,16,25)           112.5525         calculate D2E/DX2 analytically  !
 ! A34   A(17,16,18)           107.7336         calculate D2E/DX2 analytically  !
 ! A35   A(17,16,25)           107.8656         calculate D2E/DX2 analytically  !
 ! A36   A(18,16,25)           110.5643         calculate D2E/DX2 analytically  !
 ! A37   A(16,18,19)           110.8941         calculate D2E/DX2 analytically  !
 ! A38   A(16,18,20)           111.246          calculate D2E/DX2 analytically  !
 ! A39   A(16,18,21)           111.4413         calculate D2E/DX2 analytically  !
 ! A40   A(19,18,20)           107.5879         calculate D2E/DX2 analytically  !
 ! A41   A(19,18,21)           107.6785         calculate D2E/DX2 analytically  !
 ! A42   A(20,18,21)           107.8172         calculate D2E/DX2 analytically  !
 ! A43   A(5,22,23)            111.1245         calculate D2E/DX2 analytically  !
 ! A44   A(5,22,24)            113.9502         calculate D2E/DX2 analytically  !
 ! A45   A(5,22,29)            104.4426         calculate D2E/DX2 analytically  !
 ! A46   A(23,22,24)           110.0814         calculate D2E/DX2 analytically  !
 ! A47   A(23,22,29)           110.5324         calculate D2E/DX2 analytically  !
 ! A48   A(24,22,29)           106.4528         calculate D2E/DX2 analytically  !
 ! A49   A(16,25,26)           110.8716         calculate D2E/DX2 analytically  !
 ! A50   A(16,25,27)           110.7527         calculate D2E/DX2 analytically  !
 ! A51   A(16,25,28)           112.1704         calculate D2E/DX2 analytically  !
 ! A52   A(26,25,27)           107.5574         calculate D2E/DX2 analytically  !
 ! A53   A(26,25,28)           107.3988         calculate D2E/DX2 analytically  !
 ! A54   A(27,25,28)           107.8967         calculate D2E/DX2 analytically  !
 ! A55   A(22,29,30)           102.8498         calculate D2E/DX2 analytically  !
 ! D1    D(2,1,5,6)            -70.492          calculate D2E/DX2 analytically  !
 ! D2    D(2,1,5,7)             54.5901         calculate D2E/DX2 analytically  !
 ! D3    D(2,1,5,22)          -163.4966         calculate D2E/DX2 analytically  !
 ! D4    D(3,1,5,6)            170.6147         calculate D2E/DX2 analytically  !
 ! D5    D(3,1,5,7)            -64.3031         calculate D2E/DX2 analytically  !
 ! D6    D(3,1,5,22)            77.6102         calculate D2E/DX2 analytically  !
 ! D7    D(4,1,5,6)             51.109          calculate D2E/DX2 analytically  !
 ! D8    D(4,1,5,7)            176.1912         calculate D2E/DX2 analytically  !
 ! D9    D(4,1,5,22)           -41.8955         calculate D2E/DX2 analytically  !
 ! D10   D(1,5,7,8)            -32.8699         calculate D2E/DX2 analytically  !
 ! D11   D(1,5,7,9)             80.9276         calculate D2E/DX2 analytically  !
 ! D12   D(1,5,7,10)          -156.1822         calculate D2E/DX2 analytically  !
 ! D13   D(6,5,7,8)             89.6116         calculate D2E/DX2 analytically  !
 ! D14   D(6,5,7,9)           -156.591          calculate D2E/DX2 analytically  !
 ! D15   D(6,5,7,10)           -33.7008         calculate D2E/DX2 analytically  !
 ! D16   D(22,5,7,8)          -173.2283         calculate D2E/DX2 analytically  !
 ! D17   D(22,5,7,9)           -59.4309         calculate D2E/DX2 analytically  !
 ! D18   D(22,5,7,10)           63.4593         calculate D2E/DX2 analytically  !
 ! D19   D(1,5,22,23)         -166.0265         calculate D2E/DX2 analytically  !
 ! D20   D(1,5,22,24)          -40.9699         calculate D2E/DX2 analytically  !
 ! D21   D(1,5,22,29)           74.7787         calculate D2E/DX2 analytically  !
 ! D22   D(6,5,22,23)           87.4625         calculate D2E/DX2 analytically  !
 ! D23   D(6,5,22,24)         -147.4809         calculate D2E/DX2 analytically  !
 ! D24   D(6,5,22,29)          -31.7323         calculate D2E/DX2 analytically  !
 ! D25   D(7,5,22,23)          -25.0045         calculate D2E/DX2 analytically  !
 ! D26   D(7,5,22,24)          100.0521         calculate D2E/DX2 analytically  !
 ! D27   D(7,5,22,29)         -144.1994         calculate D2E/DX2 analytically  !
 ! D28   D(5,7,10,11)           59.4558         calculate D2E/DX2 analytically  !
 ! D29   D(5,7,10,12)          -56.4363         calculate D2E/DX2 analytically  !
 ! D30   D(5,7,10,13)         -179.1923         calculate D2E/DX2 analytically  !
 ! D31   D(8,7,10,11)          -63.6788         calculate D2E/DX2 analytically  !
 ! D32   D(8,7,10,12)         -179.5709         calculate D2E/DX2 analytically  !
 ! D33   D(8,7,10,13)           57.6731         calculate D2E/DX2 analytically  !
 ! D34   D(9,7,10,11)         -178.058          calculate D2E/DX2 analytically  !
 ! D35   D(9,7,10,12)           66.05           calculate D2E/DX2 analytically  !
 ! D36   D(9,7,10,13)          -56.7061         calculate D2E/DX2 analytically  !
 ! D37   D(7,10,13,14)          62.0196         calculate D2E/DX2 analytically  !
 ! D38   D(7,10,13,15)         -53.2333         calculate D2E/DX2 analytically  !
 ! D39   D(7,10,13,16)        -174.9967         calculate D2E/DX2 analytically  !
 ! D40   D(11,10,13,14)       -176.9356         calculate D2E/DX2 analytically  !
 ! D41   D(11,10,13,15)         67.8115         calculate D2E/DX2 analytically  !
 ! D42   D(11,10,13,16)        -53.9519         calculate D2E/DX2 analytically  !
 ! D43   D(12,10,13,14)        -60.7123         calculate D2E/DX2 analytically  !
 ! D44   D(12,10,13,15)       -175.9652         calculate D2E/DX2 analytically  !
 ! D45   D(12,10,13,16)         62.2714         calculate D2E/DX2 analytically  !
 ! D46   D(10,13,16,17)         54.8192         calculate D2E/DX2 analytically  !
 ! D47   D(10,13,16,18)        172.0933         calculate D2E/DX2 analytically  !
 ! D48   D(10,13,16,25)        -63.8362         calculate D2E/DX2 analytically  !
 ! D49   D(14,13,16,17)        178.1121         calculate D2E/DX2 analytically  !
 ! D50   D(14,13,16,18)        -64.6138         calculate D2E/DX2 analytically  !
 ! D51   D(14,13,16,25)         59.4567         calculate D2E/DX2 analytically  !
 ! D52   D(15,13,16,17)        -67.067          calculate D2E/DX2 analytically  !
 ! D53   D(15,13,16,18)         50.2071         calculate D2E/DX2 analytically  !
 ! D54   D(15,13,16,25)        174.2776         calculate D2E/DX2 analytically  !
 ! D55   D(13,16,18,19)         62.5986         calculate D2E/DX2 analytically  !
 ! D56   D(13,16,18,20)       -177.7023         calculate D2E/DX2 analytically  !
 ! D57   D(13,16,18,21)        -57.3446         calculate D2E/DX2 analytically  !
 ! D58   D(17,16,18,19)        179.7466         calculate D2E/DX2 analytically  !
 ! D59   D(17,16,18,20)        -60.5543         calculate D2E/DX2 analytically  !
 ! D60   D(17,16,18,21)         59.8034         calculate D2E/DX2 analytically  !
 ! D61   D(25,16,18,19)        -62.609          calculate D2E/DX2 analytically  !
 ! D62   D(25,16,18,20)         57.0901         calculate D2E/DX2 analytically  !
 ! D63   D(25,16,18,21)        177.4478         calculate D2E/DX2 analytically  !
 ! D64   D(13,16,25,26)       -179.3369         calculate D2E/DX2 analytically  !
 ! D65   D(13,16,25,27)        -60.0143         calculate D2E/DX2 analytically  !
 ! D66   D(13,16,25,28)         60.6006         calculate D2E/DX2 analytically  !
 ! D67   D(17,16,25,26)         62.2047         calculate D2E/DX2 analytically  !
 ! D68   D(17,16,25,27)       -178.4727         calculate D2E/DX2 analytically  !
 ! D69   D(17,16,25,28)        -57.8577         calculate D2E/DX2 analytically  !
 ! D70   D(18,16,25,26)        -55.3587         calculate D2E/DX2 analytically  !
 ! D71   D(18,16,25,27)         63.964          calculate D2E/DX2 analytically  !
 ! D72   D(18,16,25,28)       -175.4211         calculate D2E/DX2 analytically  !
 ! D73   D(5,22,29,30)          45.1219         calculate D2E/DX2 analytically  !
 ! D74   D(23,22,29,30)        -74.4729         calculate D2E/DX2 analytically  !
 ! D75   D(24,22,29,30)        165.9955         calculate D2E/DX2 analytically  !
 --------------------------------------------------------------------------------
 Trust Radius=3.00D-01 FncErr=1.00D-07 GrdErr=1.00D-06
 Number of steps in this run=    169 maximum allowed number of steps=    180.
 Search for a saddle point of order  1.
 GradGradGradGradGradGradGradGradGradGradGradGradGradGradGradGradGradGrad

 Leave Link  103 at Mon Feb 17 01:46:04 2014, MaxMem= 4026531840 cpu:       0.1
 (Enter /usr/caen/gaussian-09revc/g09/l202.exe)
                          Input orientation:                          
 ---------------------------------------------------------------------
 Center     Atomic      Atomic             Coordinates (Angstroms)
 Number     Number       Type             X           Y           Z
 ---------------------------------------------------------------------
      1          6           0       -3.014468    1.695418   -0.138262
      2          1           0       -2.760755    2.346631   -0.978727
      3          1           0       -3.086976    2.331052    0.756544
      4          1           0       -3.998877    1.257702   -0.317290
      5          6           0       -1.967002    0.625679    0.066289
      6          1           0       -2.079219   -0.230372   -0.968475
      7          6           0       -0.545155    1.118936    0.234025
      8          1           0       -0.415275    2.024694   -0.369091
      9          1           0       -0.415227    1.444850    1.279991
     10          6           0        0.568683    0.118773   -0.119308
     11          1           0        0.460016   -0.178405   -1.168953
     12          1           0        0.449804   -0.795225    0.468645
     13          6           0        1.967470    0.707400    0.103054
     14          1           0        2.095065    0.954305    1.166372
     15          1           0        2.036916    1.659353   -0.438607
     16          6           0        3.136611   -0.191287   -0.342458
     17          1           0        2.970111   -0.452580   -1.396585
     18          6           0        4.464145    0.574987   -0.254654
     19          1           0        4.679653    0.866149    0.779520
     20          1           0        5.299396   -0.037505   -0.606496
     21          1           0        4.440170    1.487117   -0.858527
     22          6           0       -2.433745   -0.550893    0.946522
     23          1           0       -1.586172   -1.164348    1.266646
     24          1           0       -3.027805   -0.247957    1.814948
     25          6           0        3.213993   -1.497985    0.460209
     26          1           0        4.059195   -2.108778    0.129908
     27          1           0        3.353056   -1.290545    1.527480
     28          1           0        2.310978   -2.103232    0.350683
     29          8           0       -3.306560   -1.303675    0.101763
     30          8           0       -2.584347   -1.367460   -1.123074
 ---------------------------------------------------------------------
                    Distance matrix (angstroms):
                    1          2          3          4          5
     1  C    0.000000
     2  H    1.093083   0.000000
     3  H    1.099984   1.765737   0.000000
     4  H    1.092111   1.776573   1.771091   0.000000
     5  C    1.511082   2.164204   2.153855   2.162198   0.000000
     6  H    2.296217   2.665622   3.248408   2.514656   1.347647
     7  C    2.562896   2.808360   2.864106   3.500200   1.514294
     8  H    2.630116   2.444704   2.915287   3.665128   2.134164
     9  H    2.971579   3.378834   2.863144   3.927961   2.133570
    10  C    3.914734   4.097208   4.361781   4.711577   2.592508
    11  H    4.079899   4.096994   4.752480   4.761246   2.839505
    12  H    4.309619   4.719516   4.729197   4.962153   2.832280
    13  C    5.084695   5.119906   5.348899   6.006398   3.935492
    14  H    5.325284   5.488079   5.377447   6.279286   4.221204
    15  H    5.060434   4.876651   5.304134   6.050359   4.165905
    16  C    6.437167   6.451728   6.804633   7.281167   5.184725
    17  H    6.481702   6.391636   7.005203   7.256496   5.260963
    18  C    7.562973   7.474101   7.818294   8.490746   6.439350
    19  H    7.792914   7.787357   7.903606   8.756323   6.689136
    20  H    8.505445   8.413602   8.820384   9.392501   7.327550
    21  H    7.492249   7.253036   7.744586   8.459497   6.530637
    22  C    2.561232   3.494161   2.961150   2.705157   1.541746
    23  H    3.491713   4.329933   3.838025   3.767801   2.188626
    24  H    2.755343   3.822018   2.788370   2.785037   2.224039
    25  C    7.024935   7.249084   7.379129   7.760400   5.613184
    26  H    8.036201   8.221402   8.436381   8.744467   6.617881
    27  H    7.227450   7.542467   7.428615   7.996728   5.840378
    28  H    6.559663   6.876852   6.997536   7.180274   5.082219
    29  O    3.022828   3.845789   3.699756   2.686180   2.349060
    30  O    3.245933   3.721079   4.179066   3.088958   2.401729
                    6          7          8          9         10
     6  H    0.000000
     7  C    2.370652   0.000000
     8  H    2.865884   1.095908   0.000000
     9  H    3.260497   1.103243   1.748053   0.000000
    10  C    2.802565   1.538117   2.159421   2.164393   0.000000
    11  H    2.547667   2.159122   2.501911   3.065670   1.096302
    12  H    2.963162   2.170024   3.066285   2.534659   1.093258
    13  C    4.289905   2.549470   2.763269   2.757945   1.533796
    14  H    4.835874   2.804842   3.131323   2.560295   2.163545
    15  H    4.560086   2.722421   2.480231   3.002099   2.151987
    16  C    5.253409   3.950243   4.186547   4.233774   2.596187
    17  H    5.072316   4.181584   4.318966   4.714320   2.779341
    18  C    6.631271   5.062388   5.091511   5.188455   3.924420
    19  H    7.066838   5.259286   5.349750   5.152006   4.273937
    20  H    7.390006   6.016860   6.080007   6.197832   4.758300
    21  H    6.742721   5.116903   4.909571   5.305650   4.172196
    22  C    1.973737   2.619686   3.526855   2.858077   3.255614
    23  H    2.472079   2.713560   3.770494   2.859931   2.865426
    24  H    2.940675   3.245191   4.093932   3.158693   4.100069
    25  C    5.627262   4.585916   5.125289   4.743792   3.153952
    26  H    6.512678   5.623968   6.111912   5.828500   4.148224
    27  H    6.071521   4.761793   5.365455   4.663003   3.528572
    28  H    4.951930   4.307374   4.999030   4.569977   2.862480
    29  O    1.950322   3.675853   4.433878   4.159617   4.133974
    30  O    1.253804   3.490299   4.096349   4.288227   3.627400
                   11         12         13         14         15
    11  H    0.000000
    12  H    1.749942   0.000000
    13  C    2.162191   2.166760   0.000000
    14  H    3.067598   2.500912   1.099039   0.000000
    15  H    2.529303   3.060553   1.097467   1.753976   0.000000
    16  C    2.801325   2.870812   1.540458   2.161890   2.154865
    17  H    2.535264   3.154114   2.144705   3.051849   2.499767
    18  C    4.175714   4.302973   2.525643   2.788501   2.664794
    19  H    4.763715   4.555044   2.799776   2.614865   3.016134
    20  H    4.873993   5.024800   3.487130   3.794006   3.681208
    21  H    4.325732   4.784714   2.765292   3.143823   2.445737
    22  C    3.603864   2.933073   4.654614   4.777455   5.175962
    23  H    3.330332   2.217714   4.181598   4.248559   4.899790
    24  H    4.590577   3.769058   5.366196   5.301875   5.862401
    25  C    3.461192   2.852137   2.558340   2.786466   3.487429
    26  H    4.285729   3.855887   3.508118   3.783456   4.314120
    27  H    4.108198   3.129752   2.817911   2.598517   3.781484
    28  H    3.072509   2.277886   2.842353   3.171829   3.854236
    29  O    4.131349   3.808332   5.644450   5.950581   6.133863
    30  O    3.268655   3.473772   5.150483   5.703425   5.566522
                   16         17         18         19         20
    16  C    0.000000
    17  H    1.098717   0.000000
    18  C    1.535328   2.142904   0.000000
    19  H    2.181280   3.065455   1.095780   0.000000
    20  H    2.184263   2.494413   1.093885   1.766837   0.000000
    21  H    2.186923   2.492590   1.094175   1.768093   1.768124
    22  C    5.728844   5.890796   7.091637   7.255090   7.904233
    23  H    5.083379   5.325329   6.476571   6.604602   7.224229
    24  H    6.531281   6.806674   7.815997   7.856096   8.674673
    25  C    1.535488   2.144769   2.524108   2.799866   2.760393
    26  H    2.179693   2.501855   2.741253   3.107596   2.523997
    27  H    2.179882   3.065777   2.809044   2.640196   3.148365
    28  H    2.194914   2.492399   3.489329   3.822531   3.756869
    29  O    6.553563   6.508918   8.002516   8.303438   8.727388
    30  O    5.892547   5.635940   7.362642   7.834192   8.011806
                   21         22         23         24         25
    21  H    0.000000
    22  C    7.393402   0.000000
    23  H    6.918340   1.094160   0.000000
    24  H    8.119643   1.094916   1.794077   0.000000
    25  C    3.486174   5.747210   4.878856   6.508297   0.000000
    26  H    3.748681   6.726971   5.835605   7.518483   1.093862
    27  H    3.819719   5.862735   4.947720   6.471863   1.096101
    28  H    4.345832   5.027641   4.111967   5.838555   1.092591
    29  O    8.289904   1.429022   2.082330   2.031563   6.533288
    30  O    7.586991   2.229953   2.597762   3.175203   6.012035
                   26         27         28         29         30
    26  H    0.000000
    27  H    1.766733   0.000000
    28  H    1.762111   1.769530   0.000000
    29  O    7.409678   6.810531   5.679611   0.000000
    30  O    6.801189   6.502623   5.165029   1.423336   0.000000
 Stoichiometry    C9H19O2(2)
 Framework group  C1[X(C9H19O2)]
 Deg. of freedom    84
 Full point group                 C1      NOp   1
 Largest Abelian subgroup         C1      NOp   1
 Largest concise Abelian subgroup C1      NOp   1
                         Standard orientation:                         
 ---------------------------------------------------------------------
 Center     Atomic      Atomic             Coordinates (Angstroms)
 Number     Number       Type             X           Y           Z
 ---------------------------------------------------------------------
      1          6           0       -3.014468    1.695418   -0.138262
      2          1           0       -2.760755    2.346631   -0.978727
      3          1           0       -3.086976    2.331052    0.756544
      4          1           0       -3.998877    1.257702   -0.317290
      5          6           0       -1.967002    0.625679    0.066289
      6          1           0       -2.079219   -0.230372   -0.968475
      7          6           0       -0.545155    1.118936    0.234025
      8          1           0       -0.415275    2.024694   -0.369091
      9          1           0       -0.415227    1.444850    1.279991
     10          6           0        0.568683    0.118773   -0.119308
     11          1           0        0.460016   -0.178405   -1.168953
     12          1           0        0.449804   -0.795225    0.468645
     13          6           0        1.967470    0.707400    0.103054
     14          1           0        2.095065    0.954305    1.166372
     15          1           0        2.036916    1.659353   -0.438607
     16          6           0        3.136611   -0.191287   -0.342458
     17          1           0        2.970111   -0.452580   -1.396585
     18          6           0        4.464145    0.574987   -0.254654
     19          1           0        4.679653    0.866149    0.779520
     20          1           0        5.299396   -0.037505   -0.606496
     21          1           0        4.440170    1.487117   -0.858527
     22          6           0       -2.433745   -0.550893    0.946522
     23          1           0       -1.586172   -1.164348    1.266646
     24          1           0       -3.027805   -0.247957    1.814948
     25          6           0        3.213993   -1.497985    0.460209
     26          1           0        4.059195   -2.108778    0.129908
     27          1           0        3.353056   -1.290545    1.527480
     28          1           0        2.310978   -2.103232    0.350683
     29          8           0       -3.306560   -1.303675    0.101763
     30          8           0       -2.584347   -1.367460   -1.123074
 ---------------------------------------------------------------------
 Rotational constants (GHZ):      2.0540457      0.3981630      0.3598990
 Leave Link  202 at Mon Feb 17 01:46:04 2014, MaxMem= 4026531840 cpu:       0.1
 (Enter /usr/caen/gaussian-09revc/g09/l301.exe)
 Standard basis: 6-311G(2d,d,p) (5D, 7F)
 Ernie: Thresh=  0.10000D-02 Tol=  0.10000D-05 Strict=F.
 There are   312 symmetry adapted basis functions of A   symmetry.
 Integral buffers will be    131072 words long.
 Raffenetti 2 integral format.
 Two-electron integral symmetry is turned on.
   312 basis functions,   504 primitive gaussians,   323 cartesian basis functions
    45 alpha electrons       44 beta electrons
       nuclear repulsion energy       647.2914378945 Hartrees.
 IExCor=  402 DFT=T Ex+Corr=B3LYP ExCW=0 ScaHFX=  0.200000
 ScaDFX=  0.800000  0.720000  1.000000  0.810000 ScalE2=  1.000000  1.000000
 IRadAn=      0 IRanWt=     -1 IRanGd=            0 ICorTp=0
 NAtoms=   30 NActive=   30 NUniq=   30 SFac= 1.00D+00 NAtFMM=   60 NAOKFM=F Big=F
 Leave Link  301 at Mon Feb 17 01:46:04 2014, MaxMem= 4026531840 cpu:       0.3
 (Enter /usr/caen/gaussian-09revc/g09/l302.exe)
 NPDir=0 NMtPBC=     1 NCelOv=     1 NCel=       1 NClECP=     1 NCelD=      1
         NCelK=      1 NCelE2=     1 NClLst=     1 CellRange=     0.0.
 One-electron integrals computed using PRISM.
 NBasis=   312 RedAO= T  NBF=   312
 NBsUse=   312 1.00D-06 NBFU=   312
 Precomputing XC quadrature grid using
 IXCGrd= 2 IRadAn=           0 IRanWt=          -1 IRanGd=           0 AccXCQ= 0.00D+00.
 NRdTot=    1912 NPtTot=      243844 NUsed=      257631 NTot=      257663
 NSgBfM=   323   323   323   323   323 NAtAll=    30    30.
 Leave Link  302 at Mon Feb 17 01:46:05 2014, MaxMem= 4026531840 cpu:       2.7
 (Enter /usr/caen/gaussian-09revc/g09/l303.exe)
 DipDrv:  MaxL=1.
 Leave Link  303 at Mon Feb 17 01:46:05 2014, MaxMem= 4026531840 cpu:       0.3
 (Enter /usr/caen/gaussian-09revc/g09/l401.exe)
 Harris functional with IExCor=  402 diagonalized for initial guess.
 ExpMin= 1.03D-01 ExpMax= 8.59D+03 ExpMxC= 1.30D+03 IAcc=1 IRadAn=         1 AccDes= 0.00D+00
 HarFok:  IExCor=  402 AccDes= 0.00D+00 IRadAn=         1 IDoV= 1
 ScaDFX=  1.000000  1.000000  1.000000  1.000000
 FoFCou: FMM=F IPFlag=           0 FMFlag=      100000 FMFlg1=           0
         NFxFlg=           0 DoJE=T BraDBF=F KetDBF=T FulRan=T
         Omega=  0.000000  0.000000  1.000000  0.000000  0.000000 ICntrl=     500 IOpCl=  0
         NMat0=    1 NMatS0=    1 NMatT0=    0 NMatD0=    1 NMtDS0=    0 NMtDT0=    0
         I1Cent=           4 NGrid=           0.
 Petite list used in FoFCou.
 Harris En= -504.878571698300    
 Initial guess orbital symmetries:
 Alpha Orbitals:
       Occupied  (A) (A) (A) (A) (A) (A) (A) (A) (A) (A) (A) (A)
                 (A) (A) (A) (A) (A) (A) (A) (A) (A) (A) (A) (A)
                 (A) (A) (A) (A) (A) (A) (A) (A) (A) (A) (A) (A)
                 (A) (A) (A) (A) (A) (A) (A) (A) (A)
       Virtual   (A) (A) (A) (A) (A) (A) (A) (A) (A) (A) (A) (A)
                 (A) (A) (A) (A) (A) (A) (A) (A) (A) (A) (A) (A)
                 (A) (A) (A) (A) (A) (A) (A) (A) (A) (A) (A) (A)
                 (A) (A) (A) (A) (A) (A) (A) (A) (A) (A) (A) (A)
                 (A) (A) (A) (A) (A) (A) (A) (A) (A) (A) (A) (A)
                 (A) (A) (A) (A) (A) (A) (A) (A) (A) (A) (A) (A)
                 (A) (A) (A) (A) (A) (A) (A) (A) (A) (A) (A) (A)
                 (A) (A) (A) (A) (A) (A) (A) (A) (A) (A) (A) (A)
                 (A) (A) (A) (A) (A) (A) (A) (A) (A) (A) (A) (A)
                 (A) (A) (A) (A) (A) (A) (A) (A) (A) (A) (A) (A)
                 (A) (A) (A) (A) (A) (A) (A) (A) (A) (A) (A) (A)
                 (A) (A) (A) (A) (A) (A) (A) (A) (A) (A) (A) (A)
                 (A) (A) (A) (A) (A) (A) (A) (A) (A) (A) (A) (A)
                 (A) (A) (A) (A) (A) (A) (A) (A) (A) (A) (A) (A)
                 (A) (A) (A) (A) (A) (A) (A) (A) (A) (A) (A) (A)
                 (A) (A) (A) (A) (A) (A) (A) (A) (A) (A) (A) (A)
                 (A) (A) (A) (A) (A) (A) (A) (A) (A) (A) (A) (A)
                 (A) (A) (A) (A) (A) (A) (A) (A) (A) (A) (A) (A)
                 (A) (A) (A) (A) (A) (A) (A) (A) (A) (A) (A) (A)
                 (A) (A) (A) (A) (A) (A) (A) (A) (A) (A) (A) (A)
                 (A) (A) (A) (A) (A) (A) (A) (A) (A) (A) (A) (A)
                 (A) (A) (A) (A) (A) (A) (A) (A) (A) (A) (A) (A)
                 (A) (A) (A)
 Beta  Orbitals:
       Occupied  (A) (A) (A) (A) (A) (A) (A) (A) (A) (A) (A) (A)
                 (A) (A) (A) (A) (A) (A) (A) (A) (A) (A) (A) (A)
                 (A) (A) (A) (A) (A) (A) (A) (A) (A) (A) (A) (A)
                 (A) (A) (A) (A) (A) (A) (A) (A)
       Virtual   (A) (A) (A) (A) (A) (A) (A) (A) (A) (A) (A) (A)
                 (A) (A) (A) (A) (A) (A) (A) (A) (A) (A) (A) (A)
                 (A) (A) (A) (A) (A) (A) (A) (A) (A) (A) (A) (A)
                 (A) (A) (A) (A) (A) (A) (A) (A) (A) (A) (A) (A)
                 (A) (A) (A) (A) (A) (A) (A) (A) (A) (A) (A) (A)
                 (A) (A) (A) (A) (A) (A) (A) (A) (A) (A) (A) (A)
                 (A) (A) (A) (A) (A) (A) (A) (A) (A) (A) (A) (A)
                 (A) (A) (A) (A) (A) (A) (A) (A) (A) (A) (A) (A)
                 (A) (A) (A) (A) (A) (A) (A) (A) (A) (A) (A) (A)
                 (A) (A) (A) (A) (A) (A) (A) (A) (A) (A) (A) (A)
                 (A) (A) (A) (A) (A) (A) (A) (A) (A) (A) (A) (A)
                 (A) (A) (A) (A) (A) (A) (A) (A) (A) (A) (A) (A)
                 (A) (A) (A) (A) (A) (A) (A) (A) (A) (A) (A) (A)
                 (A) (A) (A) (A) (A) (A) (A) (A) (A) (A) (A) (A)
                 (A) (A) (A) (A) (A) (A) (A) (A) (A) (A) (A) (A)
                 (A) (A) (A) (A) (A) (A) (A) (A) (A) (A) (A) (A)
                 (A) (A) (A) (A) (A) (A) (A) (A) (A) (A) (A) (A)
                 (A) (A) (A) (A) (A) (A) (A) (A) (A) (A) (A) (A)
                 (A) (A) (A) (A) (A) (A) (A) (A) (A) (A) (A) (A)
                 (A) (A) (A) (A) (A) (A) (A) (A) (A) (A) (A) (A)
                 (A) (A) (A) (A) (A) (A) (A) (A) (A) (A) (A) (A)
                 (A) (A) (A) (A) (A) (A) (A) (A) (A) (A) (A) (A)
                 (A) (A) (A) (A)
 The electronic state of the initial guess is 2-A.
 Initial guess <Sx>= 0.0000 <Sy>= 0.0000 <Sz>= 0.5000 <S**2>= 0.7500 S= 0.5000
 Leave Link  401 at Mon Feb 17 01:46:06 2014, MaxMem= 4026531840 cpu:       5.6
 (Enter /usr/caen/gaussian-09revc/g09/l502.exe)
 UHF open shell SCF:
 Requested convergence on RMS density matrix=1.00D-08 within 128 cycles.
 Requested convergence on MAX density matrix=1.00D-06.
 Requested convergence on             energy=1.00D-06.
 No special actions if energy rises.
 Using DIIS extrapolation, IDIIS=  1040.
 Integral symmetry usage will be decided dynamically.
       257348 words used for storage of precomputed grid.
 Keep R1 and R2 ints in memory in canonical form, NReq=2755662079.
 IEnd=      593506 IEndB=      593506 NGot=  4026531840 MDV=  1287996997
 LenX=  1287996997 LenY=  1287892227
 Symmetry not used in FoFDir.
 MinBra= 0 MaxBra= 2 Meth= 1.
 IRaf=       0 NMat=   1 IRICut=       1 DoRegI=T DoRafI=F ISym2E= 0 JSym2E=0.
 Integral accuracy reduced to 1.0D-05 until final iterations.

 Cycle   1  Pass 0  IDiag  1:
 E= -504.440579906581    
 DIIS: error= 3.58D-02 at cycle   1 NSaved=   1.
 NSaved= 1 IEnMin= 1 EnMin= -504.440579906581     IErMin= 1 ErrMin= 3.58D-02
 ErrMax= 3.58D-02 EMaxC= 1.00D-01 BMatC= 1.49D+00 BMatP= 1.49D+00
 IDIUse=3 WtCom= 6.42D-01 WtEn= 3.58D-01
 Coeff-Com:  0.100D+01
 Coeff-En:   0.100D+01
 Coeff:      0.100D+01
 Gap=     0.222 Goal=   None    Shift=    0.000
 Gap=     0.110 Goal=   None    Shift=    0.000
 GapD=    0.110 DampG=1.000 DampE=0.500 DampFc=0.5000 IDamp=-1.
 Damping current iteration by 5.00D-01
 RMSDP=3.39D-03 MaxDP=1.21D-01              OVMax= 3.14D-01

 Cycle   2  Pass 0  IDiag  1:
 E= -504.590121794364     Delta-E=       -0.149541887783 Rises=F Damp=T
 DIIS: error= 8.58D-03 at cycle   2 NSaved=   2.
 NSaved= 2 IEnMin= 2 EnMin= -504.590121794364     IErMin= 2 ErrMin= 8.58D-03
 ErrMax= 8.58D-03 EMaxC= 1.00D-01 BMatC= 1.20D-01 BMatP= 1.49D+00
 IDIUse=3 WtCom= 9.14D-01 WtEn= 8.58D-02
 Coeff-Com:  0.977D-01 0.902D+00
 Coeff-En:   0.196D+00 0.804D+00
 Coeff:      0.106D+00 0.894D+00
 Gap=     0.332 Goal=   None    Shift=    0.000
 Gap=     0.192 Goal=   None    Shift=    0.000
 RMSDP=1.02D-03 MaxDP=5.42D-02 DE=-1.50D-01 OVMax= 3.07D-01

 Cycle   3  Pass 0  IDiag  1:
 E= -504.789211832487     Delta-E=       -0.199090038123 Rises=F Damp=F
 DIIS: error= 1.27D-02 at cycle   3 NSaved=   3.
 NSaved= 3 IEnMin= 3 EnMin= -504.789211832487     IErMin= 2 ErrMin= 8.58D-03
 ErrMax= 1.27D-02 EMaxC= 1.00D-01 BMatC= 1.18D-01 BMatP= 1.20D-01
 IDIUse=3 WtCom= 8.73D-01 WtEn= 1.27D-01
 Coeff-Com:  0.513D-02 0.497D+00 0.498D+00
 Coeff-En:   0.000D+00 0.000D+00 0.100D+01
 Coeff:      0.448D-02 0.434D+00 0.562D+00
 Gap=     0.297 Goal=   None    Shift=    0.000
 Gap=     0.106 Goal=   None    Shift=    0.000
 RMSDP=7.87D-04 MaxDP=4.21D-02 DE=-1.99D-01 OVMax= 2.17D-01

 Cycle   4  Pass 0  IDiag  1:
 E= -504.803178540598     Delta-E=       -0.013966708111 Rises=F Damp=F
 DIIS: error= 7.76D-03 at cycle   4 NSaved=   4.
 NSaved= 4 IEnMin= 4 EnMin= -504.803178540598     IErMin= 4 ErrMin= 7.76D-03
 ErrMax= 7.76D-03 EMaxC= 1.00D-01 BMatC= 6.45D-02 BMatP= 1.18D-01
 IDIUse=3 WtCom= 9.22D-01 WtEn= 7.76D-02
 Coeff-Com: -0.123D-01 0.114D+00 0.424D+00 0.475D+00
 Coeff-En:   0.000D+00 0.000D+00 0.354D+00 0.646D+00
 Coeff:     -0.114D-01 0.105D+00 0.418D+00 0.488D+00
 Gap=     0.267 Goal=   None    Shift=    0.000
 Gap=     0.106 Goal=   None    Shift=    0.000
 RMSDP=2.79D-04 MaxDP=1.32D-02 DE=-1.40D-02 OVMax= 4.13D-02

 Cycle   5  Pass 0  IDiag  1:
 E= -504.815563888382     Delta-E=       -0.012385347784 Rises=F Damp=F
 DIIS: error= 1.02D-03 at cycle   5 NSaved=   5.
 NSaved= 5 IEnMin= 5 EnMin= -504.815563888382     IErMin= 5 ErrMin= 1.02D-03
 ErrMax= 1.02D-03 EMaxC= 1.00D-01 BMatC= 1.55D-03 BMatP= 6.45D-02
 IDIUse=3 WtCom= 9.90D-01 WtEn= 1.02D-02
 Coeff-Com: -0.416D-02 0.183D-01 0.181D+00 0.204D+00 0.601D+00
 Coeff-En:   0.000D+00 0.000D+00 0.000D+00 0.000D+00 0.100D+01
 Coeff:     -0.412D-02 0.181D-01 0.179D+00 0.202D+00 0.605D+00
 Gap=     0.263 Goal=   None    Shift=    0.000
 Gap=     0.108 Goal=   None    Shift=    0.000
 RMSDP=8.44D-05 MaxDP=3.25D-03 DE=-1.24D-02 OVMax= 1.93D-02

 Cycle   6  Pass 0  IDiag  1:
 E= -504.815957741113     Delta-E=       -0.000393852731 Rises=F Damp=F
 DIIS: error= 1.36D-03 at cycle   6 NSaved=   6.
 NSaved= 6 IEnMin= 6 EnMin= -504.815957741113     IErMin= 5 ErrMin= 1.02D-03
 ErrMax= 1.36D-03 EMaxC= 1.00D-01 BMatC= 1.04D-03 BMatP= 1.55D-03
 IDIUse=3 WtCom= 9.90D-01 WtEn= 1.02D-02
 Coeff-Com:  0.119D-02-0.130D-01 0.381D-01 0.114D-01 0.426D+00 0.537D+00
 Coeff-En:   0.000D+00 0.000D+00 0.000D+00 0.000D+00 0.162D-02 0.998D+00
 Coeff:      0.117D-02-0.129D-01 0.377D-01 0.113D-01 0.421D+00 0.541D+00
 Gap=     0.264 Goal=   None    Shift=    0.000
 Gap=     0.110 Goal=   None    Shift=    0.000
 RMSDP=6.05D-05 MaxDP=2.25D-03 DE=-3.94D-04 OVMax= 2.05D-02

 Cycle   7  Pass 0  IDiag  1:
 E= -504.816235668635     Delta-E=       -0.000277927522 Rises=F Damp=F
 DIIS: error= 5.32D-04 at cycle   7 NSaved=   7.
 NSaved= 7 IEnMin= 7 EnMin= -504.816235668635     IErMin= 7 ErrMin= 5.32D-04
 ErrMax= 5.32D-04 EMaxC= 1.00D-01 BMatC= 2.51D-04 BMatP= 1.04D-03
 IDIUse=3 WtCom= 9.95D-01 WtEn= 5.32D-03
 Coeff-Com:  0.259D-02-0.118D-01-0.188D-01-0.642D-01 0.870D-01 0.336D+00
 Coeff-Com:  0.669D+00
 Coeff-En:   0.000D+00 0.000D+00 0.000D+00 0.000D+00 0.000D+00 0.000D+00
 Coeff-En:   0.100D+01
 Coeff:      0.258D-02-0.117D-01-0.187D-01-0.638D-01 0.865D-01 0.335D+00
 Coeff:      0.671D+00
 Gap=     0.265 Goal=   None    Shift=    0.000
 Gap=     0.111 Goal=   None    Shift=    0.000
 RMSDP=4.86D-05 MaxDP=2.11D-03 DE=-2.78D-04 OVMax= 1.73D-02

 Cycle   8  Pass 0  IDiag  1:
 E= -504.816380241014     Delta-E=       -0.000144572379 Rises=F Damp=F
 DIIS: error= 2.97D-04 at cycle   8 NSaved=   8.
 NSaved= 8 IEnMin= 8 EnMin= -504.816380241014     IErMin= 8 ErrMin= 2.97D-04
 ErrMax= 2.97D-04 EMaxC= 1.00D-01 BMatC= 7.30D-05 BMatP= 2.51D-04
 IDIUse=3 WtCom= 9.97D-01 WtEn= 2.97D-03
 Coeff-Com:  0.125D-02 0.127D-02-0.206D-01-0.486D-01-0.168D+00-0.109D+00
 Coeff-Com:  0.328D+00 0.102D+01
 Coeff-En:   0.000D+00 0.000D+00 0.000D+00 0.000D+00 0.000D+00 0.000D+00
 Coeff-En:   0.000D+00 0.100D+01
 Coeff:      0.125D-02 0.127D-02-0.205D-01-0.485D-01-0.167D+00-0.109D+00
 Coeff:      0.327D+00 0.102D+01
 Gap=     0.266 Goal=   None    Shift=    0.000
 Gap=     0.112 Goal=   None    Shift=    0.000
 RMSDP=5.92D-05 MaxDP=2.78D-03 DE=-1.45D-04 OVMax= 2.42D-02

 Cycle   9  Pass 0  IDiag  1:
 E= -504.816474469064     Delta-E=       -0.000094228050 Rises=F Damp=F
 DIIS: error= 1.48D-04 at cycle   9 NSaved=   9.
 NSaved= 9 IEnMin= 9 EnMin= -504.816474469064     IErMin= 9 ErrMin= 1.48D-04
 ErrMax= 1.48D-04 EMaxC= 1.00D-01 BMatC= 1.28D-05 BMatP= 7.30D-05
 IDIUse=3 WtCom= 9.99D-01 WtEn= 1.48D-03
 Coeff-Com: -0.362D-03 0.263D-02 0.622D-02 0.569D-02-0.294D-01-0.726D-01
 Coeff-Com: -0.148D+00 0.102D+00 0.113D+01
 Coeff-En:   0.000D+00 0.000D+00 0.000D+00 0.000D+00 0.000D+00 0.000D+00
 Coeff-En:   0.000D+00 0.000D+00 0.100D+01
 Coeff:     -0.362D-03 0.262D-02 0.621D-02 0.568D-02-0.293D-01-0.725D-01
 Coeff:     -0.148D+00 0.101D+00 0.113D+01
 Gap=     0.265 Goal=   None    Shift=    0.000
 Gap=     0.112 Goal=   None    Shift=    0.000
 RMSDP=3.25D-05 MaxDP=1.57D-03 DE=-9.42D-05 OVMax= 1.33D-02

 Cycle  10  Pass 0  IDiag  1:
 E= -504.816498304177     Delta-E=       -0.000023835112 Rises=F Damp=F
 DIIS: error= 7.08D-05 at cycle  10 NSaved=  10.
 NSaved=10 IEnMin=10 EnMin= -504.816498304177     IErMin=10 ErrMin= 7.08D-05
 ErrMax= 7.08D-05 EMaxC= 1.00D-01 BMatC= 3.98D-06 BMatP= 1.28D-05
 IDIUse=1 WtCom= 1.00D+00 WtEn= 0.00D+00
 Coeff-Com: -0.403D-03 0.636D-03 0.999D-02 0.147D-01 0.403D-01 0.164D-01
 Coeff-Com: -0.174D+00-0.263D+00 0.422D+00 0.932D+00
 Coeff:     -0.403D-03 0.636D-03 0.999D-02 0.147D-01 0.403D-01 0.164D-01
 Coeff:     -0.174D+00-0.263D+00 0.422D+00 0.932D+00
 Gap=     0.265 Goal=   None    Shift=    0.000
 Gap=     0.112 Goal=   None    Shift=    0.000
 RMSDP=1.73D-05 MaxDP=8.32D-04 DE=-2.38D-05 OVMax= 7.07D-03

 Cycle  11  Pass 0  IDiag  1:
 E= -504.816503995439     Delta-E=       -0.000005691263 Rises=F Damp=F
 DIIS: error= 3.17D-05 at cycle  11 NSaved=  11.
 NSaved=11 IEnMin=11 EnMin= -504.816503995439     IErMin=11 ErrMin= 3.17D-05
 ErrMax= 3.17D-05 EMaxC= 1.00D-01 BMatC= 8.85D-07 BMatP= 3.98D-06
 IDIUse=1 WtCom= 1.00D+00 WtEn= 0.00D+00
 Coeff-Com:  0.398D-04-0.397D-03 0.241D-02 0.266D-02 0.208D-01 0.272D-01
 Coeff-Com: -0.359D-01-0.113D+00-0.129D+00 0.367D+00 0.858D+00
 Coeff:      0.398D-04-0.397D-03 0.241D-02 0.266D-02 0.208D-01 0.272D-01
 Coeff:     -0.359D-01-0.113D+00-0.129D+00 0.367D+00 0.858D+00
 Gap=     0.265 Goal=   None    Shift=    0.000
 Gap=     0.112 Goal=   None    Shift=    0.000
 RMSDP=6.83D-06 MaxDP=3.21D-04 DE=-5.69D-06 OVMax= 2.66D-03

 Initial convergence to 1.0D-05 achieved.  Increase integral accuracy.
 Cycle  12  Pass 1  IDiag  1:
 E= -504.816500615464     Delta-E=        0.000003379975 Rises=F Damp=F
 DIIS: error= 1.50D-05 at cycle   1 NSaved=   1.
 NSaved= 1 IEnMin= 1 EnMin= -504.816500615464     IErMin= 1 ErrMin= 1.50D-05
 ErrMax= 1.50D-05 EMaxC= 1.00D-01 BMatC= 8.10D-07 BMatP= 8.10D-07
 IDIUse=1 WtCom= 1.00D+00 WtEn= 0.00D+00
 Coeff-Com:  0.100D+01
 Coeff:      0.100D+01
 Gap=     0.265 Goal=   None    Shift=    0.000
 Gap=     0.112 Goal=   None    Shift=    0.000
 RMSDP=6.83D-06 MaxDP=3.21D-04 DE= 3.38D-06 OVMax= 2.36D-04

 Cycle  13  Pass 1  IDiag  1:
 E= -504.816500866661     Delta-E=       -0.000000251197 Rises=F Damp=F
 DIIS: error= 1.20D-05 at cycle   2 NSaved=   2.
 NSaved= 2 IEnMin= 2 EnMin= -504.816500866661     IErMin= 2 ErrMin= 1.20D-05
 ErrMax= 1.20D-05 EMaxC= 1.00D-01 BMatC= 1.44D-07 BMatP= 8.10D-07
 IDIUse=1 WtCom= 1.00D+00 WtEn= 0.00D+00
 Coeff-Com:  0.188D+00 0.812D+00
 Coeff:      0.188D+00 0.812D+00
 Gap=     0.265 Goal=   None    Shift=    0.000
 Gap=     0.112 Goal=   None    Shift=    0.000
 RMSDP=1.22D-06 MaxDP=4.55D-05 DE=-2.51D-07 OVMax= 3.22D-04

 Cycle  14  Pass 1  IDiag  1:
 E= -504.816500867947     Delta-E=       -0.000000001286 Rises=F Damp=F
 DIIS: error= 1.37D-05 at cycle   3 NSaved=   3.
 NSaved= 3 IEnMin= 3 EnMin= -504.816500867947     IErMin= 2 ErrMin= 1.20D-05
 ErrMax= 1.37D-05 EMaxC= 1.00D-01 BMatC= 2.23D-07 BMatP= 1.44D-07
 IDIUse=1 WtCom= 1.00D+00 WtEn= 0.00D+00
 Coeff-Com: -0.166D-01 0.563D+00 0.454D+00
 Coeff:     -0.166D-01 0.563D+00 0.454D+00
 Gap=     0.265 Goal=   None    Shift=    0.000
 Gap=     0.112 Goal=   None    Shift=    0.000
 RMSDP=6.63D-07 MaxDP=2.77D-05 DE=-1.29D-09 OVMax= 7.20D-05

 Cycle  15  Pass 1  IDiag  1:
 E= -504.816500916450     Delta-E=       -0.000000048503 Rises=F Damp=F
 DIIS: error= 3.77D-06 at cycle   4 NSaved=   4.
 NSaved= 4 IEnMin= 4 EnMin= -504.816500916450     IErMin= 4 ErrMin= 3.77D-06
 ErrMax= 3.77D-06 EMaxC= 1.00D-01 BMatC= 9.20D-09 BMatP= 1.44D-07
 IDIUse=1 WtCom= 1.00D+00 WtEn= 0.00D+00
 Coeff-Com: -0.214D-01 0.255D+00 0.214D+00 0.552D+00
 Coeff:     -0.214D-01 0.255D+00 0.214D+00 0.552D+00
 Gap=     0.265 Goal=   None    Shift=    0.000
 Gap=     0.112 Goal=   None    Shift=    0.000
 RMSDP=2.64D-07 MaxDP=1.19D-05 DE=-4.85D-08 OVMax= 9.80D-05

 Cycle  16  Pass 1  IDiag  1:
 E= -504.816500921087     Delta-E=       -0.000000004637 Rises=F Damp=F
 DIIS: error= 2.84D-06 at cycle   5 NSaved=   5.
 NSaved= 5 IEnMin= 5 EnMin= -504.816500921087     IErMin= 5 ErrMin= 2.84D-06
 ErrMax= 2.84D-06 EMaxC= 1.00D-01 BMatC= 4.26D-09 BMatP= 9.20D-09
 IDIUse=1 WtCom= 1.00D+00 WtEn= 0.00D+00
 Coeff-Com: -0.380D-02-0.357D-01-0.762D-01 0.311D+00 0.805D+00
 Coeff:     -0.380D-02-0.357D-01-0.762D-01 0.311D+00 0.805D+00
 Gap=     0.265 Goal=   None    Shift=    0.000
 Gap=     0.112 Goal=   None    Shift=    0.000
 RMSDP=2.88D-07 MaxDP=1.35D-05 DE=-4.64D-09 OVMax= 1.14D-04

 Cycle  17  Pass 1  IDiag  1:
 E= -504.816500924844     Delta-E=       -0.000000003757 Rises=F Damp=F
 DIIS: error= 1.71D-06 at cycle   6 NSaved=   6.
 NSaved= 6 IEnMin= 6 EnMin= -504.816500924844     IErMin= 6 ErrMin= 1.71D-06
 ErrMax= 1.71D-06 EMaxC= 1.00D-01 BMatC= 2.31D-09 BMatP= 4.26D-09
 IDIUse=1 WtCom= 1.00D+00 WtEn= 0.00D+00
 Coeff-Com:  0.985D-02-0.185D+00-0.225D+00-0.107D-01 0.657D+00 0.754D+00
 Coeff:      0.985D-02-0.185D+00-0.225D+00-0.107D-01 0.657D+00 0.754D+00
 Gap=     0.265 Goal=   None    Shift=    0.000
 Gap=     0.112 Goal=   None    Shift=    0.000
 RMSDP=3.06D-07 MaxDP=1.45D-05 DE=-3.76D-09 OVMax= 1.20D-04

 Cycle  18  Pass 1  IDiag  1:
 E= -504.816500927291     Delta-E=       -0.000000002447 Rises=F Damp=F
 DIIS: error= 8.30D-07 at cycle   7 NSaved=   7.
 NSaved= 7 IEnMin= 7 EnMin= -504.816500927291     IErMin= 7 ErrMin= 8.30D-07
 ErrMax= 8.30D-07 EMaxC= 1.00D-01 BMatC= 5.71D-10 BMatP= 2.31D-09
 IDIUse=1 WtCom= 1.00D+00 WtEn= 0.00D+00
 Coeff-Com:  0.774D-02-0.105D+00-0.129D+00-0.103D+00 0.118D+00 0.494D+00
 Coeff-Com:  0.718D+00
 Coeff:      0.774D-02-0.105D+00-0.129D+00-0.103D+00 0.118D+00 0.494D+00
 Coeff:      0.718D+00
 Gap=     0.265 Goal=   None    Shift=    0.000
 Gap=     0.112 Goal=   None    Shift=    0.000
 RMSDP=1.84D-07 MaxDP=8.68D-06 DE=-2.45D-09 OVMax= 7.69D-05

 Cycle  19  Pass 1  IDiag  1:
 E= -504.816500927974     Delta-E=       -0.000000000683 Rises=F Damp=F
 DIIS: error= 4.30D-07 at cycle   8 NSaved=   8.
 NSaved= 8 IEnMin= 8 EnMin= -504.816500927974     IErMin= 8 ErrMin= 4.30D-07
 ErrMax= 4.30D-07 EMaxC= 1.00D-01 BMatC= 1.24D-10 BMatP= 5.71D-10
 IDIUse=1 WtCom= 1.00D+00 WtEn= 0.00D+00
 Coeff-Com:  0.534D-03 0.656D-02 0.279D-02-0.276D-01-0.112D+00-0.620D-01
 Coeff-Com:  0.330D+00 0.862D+00
 Coeff:      0.534D-03 0.656D-02 0.279D-02-0.276D-01-0.112D+00-0.620D-01
 Coeff:      0.330D+00 0.862D+00
 Gap=     0.265 Goal=   None    Shift=    0.000
 Gap=     0.112 Goal=   None    Shift=    0.000
 RMSDP=8.21D-08 MaxDP=3.89D-06 DE=-6.83D-10 OVMax= 3.32D-05

 Cycle  20  Pass 1  IDiag  1:
 E= -504.816500928095     Delta-E=       -0.000000000120 Rises=F Damp=F
 DIIS: error= 1.60D-07 at cycle   9 NSaved=   9.
 NSaved= 9 IEnMin= 9 EnMin= -504.816500928095     IErMin= 9 ErrMin= 1.60D-07
 ErrMax= 1.60D-07 EMaxC= 1.00D-01 BMatC= 1.42D-11 BMatP= 1.24D-10
 IDIUse=1 WtCom= 1.00D+00 WtEn= 0.00D+00
 Coeff-Com: -0.111D-02 0.199D-01 0.216D-01 0.851D-02-0.497D-01-0.119D+00
 Coeff-Com:  0.216D-01 0.247D+00 0.851D+00
 Coeff:     -0.111D-02 0.199D-01 0.216D-01 0.851D-02-0.497D-01-0.119D+00
 Coeff:      0.216D-01 0.247D+00 0.851D+00
 Gap=     0.265 Goal=   None    Shift=    0.000
 Gap=     0.112 Goal=   None    Shift=    0.000
 RMSDP=2.27D-08 MaxDP=1.04D-06 DE=-1.20D-10 OVMax= 9.01D-06

 Cycle  21  Pass 1  IDiag  1:
 E= -504.816500928114     Delta-E=       -0.000000000020 Rises=F Damp=F
 DIIS: error= 7.81D-08 at cycle  10 NSaved=  10.
 NSaved=10 IEnMin=10 EnMin= -504.816500928114     IErMin=10 ErrMin= 7.81D-08
 ErrMax= 7.81D-08 EMaxC= 1.00D-01 BMatC= 3.91D-12 BMatP= 1.42D-11
 IDIUse=1 WtCom= 1.00D+00 WtEn= 0.00D+00
 Coeff-Com: -0.613D-03 0.666D-02 0.799D-02 0.124D-01 0.138D-01-0.372D-01
 Coeff-Com: -0.779D-01-0.173D+00 0.339D+00 0.909D+00
 Coeff:     -0.613D-03 0.666D-02 0.799D-02 0.124D-01 0.138D-01-0.372D-01
 Coeff:     -0.779D-01-0.173D+00 0.339D+00 0.909D+00
 Gap=     0.265 Goal=   None    Shift=    0.000
 Gap=     0.112 Goal=   None    Shift=    0.000
 RMSDP=1.13D-08 MaxDP=4.76D-07 DE=-1.98D-11 OVMax= 4.26D-06

 Cycle  22  Pass 1  IDiag  1:
 E= -504.816500928117     Delta-E=       -0.000000000002 Rises=F Damp=F
 DIIS: error= 2.42D-08 at cycle  11 NSaved=  11.
 NSaved=11 IEnMin=11 EnMin= -504.816500928117     IErMin=11 ErrMin= 2.42D-08
 ErrMax= 2.42D-08 EMaxC= 1.00D-01 BMatC= 4.35D-13 BMatP= 3.91D-12
 IDIUse=1 WtCom= 1.00D+00 WtEn= 0.00D+00
 Coeff-Com: -0.927D-04-0.466D-04 0.177D-03 0.351D-02 0.116D-01 0.156D-02
 Coeff-Com: -0.303D-01-0.998D-01 0.825D-02 0.342D+00 0.763D+00
 Coeff:     -0.927D-04-0.466D-04 0.177D-03 0.351D-02 0.116D-01 0.156D-02
 Coeff:     -0.303D-01-0.998D-01 0.825D-02 0.342D+00 0.763D+00
 Gap=     0.265 Goal=   None    Shift=    0.000
 Gap=     0.112 Goal=   None    Shift=    0.000
 RMSDP=2.53D-09 MaxDP=9.44D-08 DE=-2.27D-12 OVMax= 8.38D-07

 SCF Done:  E(UB3LYP) =  -504.816500928     A.U. after   22 cycles
             Convg  =    0.2531D-08             -V/T =  2.0042
 <Sx>= 0.0000 <Sy>= 0.0000 <Sz>= 0.5000 <S**2>= 0.7580 S= 0.5040
 <L.S>= 0.000000000000E+00
 KE= 5.026884187243D+02 PE=-2.470421109331D+03 EE= 8.156247517845D+02
 Annihilation of the first spin contaminant:
 S**2 before annihilation     0.7580,   after     0.7500
 Leave Link  502 at Mon Feb 17 01:48:18 2014, MaxMem= 4026531840 cpu:    1051.6
 (Enter /usr/caen/gaussian-09revc/g09/l801.exe)
 Range of M.O.s used for correlation:     1   312
 NBasis=   312 NAE=    45 NBE=    44 NFC=     0 NFV=     0
 NROrb=    312 NOA=    45 NOB=    44 NVA=   267 NVB=   268
 Leave Link  801 at Mon Feb 17 01:48:18 2014, MaxMem= 4026531840 cpu:       0.3
 (Enter /usr/caen/gaussian-09revc/g09/l1101.exe)
 Using compressed storage, NAtomX=    30.
 Will process  31 centers per pass.
 Leave Link 1101 at Mon Feb 17 01:48:18 2014, MaxMem= 4026531840 cpu:       3.6
 (Enter /usr/caen/gaussian-09revc/g09/l1102.exe)
 Symmetrizing basis deriv contribution to polar:
 IMax=3 JMax=2 DiffMx= 0.00D+00
 Leave Link 1102 at Mon Feb 17 01:48:19 2014, MaxMem= 4026531840 cpu:       0.3
 (Enter /usr/caen/gaussian-09revc/g09/l1110.exe)
 Forming Gx(P) for the SCF density, NAtomX=    30.
 Integral derivatives from FoFDir/FoFCou, PRISM(SPDF).
 Do as many integral derivatives as possible in FoFDir.
 G2DrvN: MDV=    4026531496.
 G2DrvN: will do    31 centers at a time, making    1 passes doing MaxLOS=2.
 Calling FoFCou, ICntrl=  3107 FMM=F I1Cent=   0 AccDes= 0.00D+00.
 FoFCou: FMM=F IPFlag=           0 FMFlag=      100000 FMFlg1=           0
         NFxFlg=           0 DoJE=F BraDBF=F KetDBF=F FulRan=T
         Omega=  0.000000  0.000000  1.000000  0.000000  0.000000 ICntrl=    3107 IOpCl=  1
         NMat0=    1 NMatS0=    1 NMatT0=    0 NMatD0=    1 NMtDS0=    0 NMtDT0=    0
         I1Cent=           0 NGrid=           0.
 Symmetry not used in FoFCou.
 FoFDir/FoFCou used for L=0 through L=2.
 End of G2Drv Frequency-dependent properties file   721 does not exist.
 End of G2Drv Frequency-dependent properties file   722 does not exist.
 Leave Link 1110 at Mon Feb 17 01:50:33 2014, MaxMem= 4026531840 cpu:    1071.2
 (Enter /usr/caen/gaussian-09revc/g09/l1002.exe)
 Minotr:  UHF open shell wavefunction.
          IDoAtm=111111111111111111111111111111
          Direct CPHF calculation.
          Differentiating once with respect to nuclear coordinates.
          Requested convergence is 1.0D-06 RMS, and 1.0D-05 maximum.
          Secondary convergence is 1.0D-12 RMS, and 1.0D-12 maximum.
          NewPWx=T KeepS1=F KeepF1=F KeepIn=T MapXYZ=F SortEE=F KeepMc=T.
          MDV=    4026531536 using IRadAn=       2.
 Generate precomputed XC quadrature information.
          Keep R1 and R2 ints in memory in canonical form, NReq=2738891885.
 Symmetry not used in FoFDir.
 MinBra= 0 MaxBra= 2 Meth= 1.
 IRaf=       0 NMat=   1 IRICut=       1 DoRegI=T DoRafI=F ISym2E= 0 JSym2E=0.
          Solving linear equations simultaneously, MaxMat=       0.
          There are    93 degrees of freedom in the 1st order CPHF.  IDoFFX=5.
     87 vectors produced by pass  0 Test12= 2.56D-10 1.08D-07 XBig12= 3.17D-01 3.03D-01.
 AX will form    87 AO Fock derivatives at one time.
     87 vectors produced by pass  1 Test12= 2.56D-10 1.08D-07 XBig12= 5.18D-02 4.95D-02.
     87 vectors produced by pass  2 Test12= 2.56D-10 1.08D-07 XBig12= 8.33D-04 5.03D-03.
     87 vectors produced by pass  3 Test12= 2.56D-10 1.08D-07 XBig12= 4.25D-06 2.42D-04.
     65 vectors produced by pass  4 Test12= 2.56D-10 1.08D-07 XBig12= 2.46D-08 1.80D-05.
     16 vectors produced by pass  5 Test12= 2.56D-10 1.08D-07 XBig12= 1.10D-10 7.41D-07.
 Inverted reduced A of dimension   429 with in-core refinement.
 End of Minotr Frequency-dependent properties file   721 does not exist.
 End of Minotr Frequency-dependent properties file   722 does not exist.
 Leave Link 1002 at Mon Feb 17 01:54:13 2014, MaxMem= 4026531840 cpu:    1754.9
 (Enter /usr/caen/gaussian-09revc/g09/l601.exe)
 Copying SCF densities to generalized density rwf, IOpCl= 1 IROHF=0.

 **********************************************************************

            Population analysis using the SCF density.

 **********************************************************************

 Orbital symmetries:
 Alpha Orbitals:
       Occupied  (A) (A) (A) (A) (A) (A) (A) (A) (A) (A) (A) (A)
                 (A) (A) (A) (A) (A) (A) (A) (A) (A) (A) (A) (A)
                 (A) (A) (A) (A) (A) (A) (A) (A) (A) (A) (A) (A)
                 (A) (A) (A) (A) (A) (A) (A) (A) (A)
       Virtual   (A) (A) (A) (A) (A) (A) (A) (A) (A) (A) (A) (A)
                 (A) (A) (A) (A) (A) (A) (A) (A) (A) (A) (A) (A)
                 (A) (A) (A) (A) (A) (A) (A) (A) (A) (A) (A) (A)
                 (A) (A) (A) (A) (A) (A) (A) (A) (A) (A) (A) (A)
                 (A) (A) (A) (A) (A) (A) (A) (A) (A) (A) (A) (A)
                 (A) (A) (A) (A) (A) (A) (A) (A) (A) (A) (A) (A)
                 (A) (A) (A) (A) (A) (A) (A) (A) (A) (A) (A) (A)
                 (A) (A) (A) (A) (A) (A) (A) (A) (A) (A) (A) (A)
                 (A) (A) (A) (A) (A) (A) (A) (A) (A) (A) (A) (A)
                 (A) (A) (A) (A) (A) (A) (A) (A) (A) (A) (A) (A)
                 (A) (A) (A) (A) (A) (A) (A) (A) (A) (A) (A) (A)
                 (A) (A) (A) (A) (A) (A) (A) (A) (A) (A) (A) (A)
                 (A) (A) (A) (A) (A) (A) (A) (A) (A) (A) (A) (A)
                 (A) (A) (A) (A) (A) (A) (A) (A) (A) (A) (A) (A)
                 (A) (A) (A) (A) (A) (A) (A) (A) (A) (A) (A) (A)
                 (A) (A) (A) (A) (A) (A) (A) (A) (A) (A) (A) (A)
                 (A) (A) (A) (A) (A) (A) (A) (A) (A) (A) (A) (A)
                 (A) (A) (A) (A) (A) (A) (A) (A) (A) (A) (A) (A)
                 (A) (A) (A) (A) (A) (A) (A) (A) (A) (A) (A) (A)
                 (A) (A) (A) (A) (A) (A) (A) (A) (A) (A) (A) (A)
                 (A) (A) (A) (A) (A) (A) (A) (A) (A) (A) (A) (A)
                 (A) (A) (A) (A) (A) (A) (A) (A) (A) (A) (A) (A)
                 (A) (A) (A)
 Beta  Orbitals:
       Occupied  (A) (A) (A) (A) (A) (A) (A) (A) (A) (A) (A) (A)
                 (A) (A) (A) (A) (A) (A) (A) (A) (A) (A) (A) (A)
                 (A) (A) (A) (A) (A) (A) (A) (A) (A) (A) (A) (A)
                 (A) (A) (A) (A) (A) (A) (A) (A)
       Virtual   (A) (A) (A) (A) (A) (A) (A) (A) (A) (A) (A) (A)
                 (A) (A) (A) (A) (A) (A) (A) (A) (A) (A) (A) (A)
                 (A) (A) (A) (A) (A) (A) (A) (A) (A) (A) (A) (A)
                 (A) (A) (A) (A) (A) (A) (A) (A) (A) (A) (A) (A)
                 (A) (A) (A) (A) (A) (A) (A) (A) (A) (A) (A) (A)
                 (A) (A) (A) (A) (A) (A) (A) (A) (A) (A) (A) (A)
                 (A) (A) (A) (A) (A) (A) (A) (A) (A) (A) (A) (A)
                 (A) (A) (A) (A) (A) (A) (A) (A) (A) (A) (A) (A)
                 (A) (A) (A) (A) (A) (A) (A) (A) (A) (A) (A) (A)
                 (A) (A) (A) (A) (A) (A) (A) (A) (A) (A) (A) (A)
                 (A) (A) (A) (A) (A) (A) (A) (A) (A) (A) (A) (A)
                 (A) (A) (A) (A) (A) (A) (A) (A) (A) (A) (A) (A)
                 (A) (A) (A) (A) (A) (A) (A) (A) (A) (A) (A) (A)
                 (A) (A) (A) (A) (A) (A) (A) (A) (A) (A) (A) (A)
                 (A) (A) (A) (A) (A) (A) (A) (A) (A) (A) (A) (A)
                 (A) (A) (A) (A) (A) (A) (A) (A) (A) (A) (A) (A)
                 (A) (A) (A) (A) (A) (A) (A) (A) (A) (A) (A) (A)
                 (A) (A) (A) (A) (A) (A) (A) (A) (A) (A) (A) (A)
                 (A) (A) (A) (A) (A) (A) (A) (A) (A) (A) (A) (A)
                 (A) (A) (A) (A) (A) (A) (A) (A) (A) (A) (A) (A)
                 (A) (A) (A) (A) (A) (A) (A) (A) (A) (A) (A) (A)
                 (A) (A) (A) (A) (A) (A) (A) (A) (A) (A) (A) (A)
                 (A) (A) (A) (A)
 The electronic state is 2-A.
 Alpha  occ. eigenvalues --  -19.17838 -19.16911 -10.23168 -10.20991 -10.18522
 Alpha  occ. eigenvalues --  -10.17763 -10.17570 -10.17468 -10.17006 -10.15973
 Alpha  occ. eigenvalues --  -10.15935  -1.12759  -0.87698  -0.83643  -0.81278
 Alpha  occ. eigenvalues --   -0.76080  -0.69667  -0.68768  -0.68309  -0.61569
 Alpha  occ. eigenvalues --   -0.57523  -0.56376  -0.52550  -0.49428  -0.48485
 Alpha  occ. eigenvalues --   -0.47605  -0.45246  -0.43926  -0.43605  -0.43149
 Alpha  occ. eigenvalues --   -0.41192  -0.40319  -0.39485  -0.38866  -0.38202
 Alpha  occ. eigenvalues --   -0.37192  -0.36390  -0.35615  -0.34694  -0.33363
 Alpha  occ. eigenvalues --   -0.32781  -0.32603  -0.31996  -0.25337  -0.23868
 Alpha virt. eigenvalues --    0.02641   0.03760   0.04493   0.05424   0.05889
 Alpha virt. eigenvalues --    0.06600   0.08071   0.08851   0.09502   0.10053
 Alpha virt. eigenvalues --    0.10630   0.11376   0.12080   0.12797   0.13607
 Alpha virt. eigenvalues --    0.13936   0.14720   0.15154   0.16412   0.17174
 Alpha virt. eigenvalues --    0.17414   0.18495   0.19775   0.20160   0.22429
 Alpha virt. eigenvalues --    0.23420   0.24501   0.24841   0.25851   0.28283
 Alpha virt. eigenvalues --    0.29346   0.30024   0.31381   0.32094   0.33566
 Alpha virt. eigenvalues --    0.35079   0.37002   0.38625   0.39209   0.41510
 Alpha virt. eigenvalues --    0.42840   0.43970   0.45112   0.46584   0.47506
 Alpha virt. eigenvalues --    0.48106   0.48719   0.51697   0.52514   0.54406
 Alpha virt. eigenvalues --    0.55865   0.56021   0.56603   0.57039   0.57388
 Alpha virt. eigenvalues --    0.57756   0.57928   0.58101   0.58677   0.59468
 Alpha virt. eigenvalues --    0.59922   0.60082   0.60542   0.61804   0.62080
 Alpha virt. eigenvalues --    0.62258   0.63269   0.63845   0.64464   0.65597
 Alpha virt. eigenvalues --    0.66194   0.66657   0.68874   0.71041   0.74744
 Alpha virt. eigenvalues --    0.75393   0.79954   0.82000   0.83992   0.88348
 Alpha virt. eigenvalues --    0.89269   0.90931   0.93299   0.94883   0.97547
 Alpha virt. eigenvalues --    0.98571   1.00075   1.00667   1.01662   1.06436
 Alpha virt. eigenvalues --    1.07517   1.09382   1.11182   1.12484   1.16771
 Alpha virt. eigenvalues --    1.17846   1.20007   1.23983   1.24868   1.27123
 Alpha virt. eigenvalues --    1.29010   1.35016   1.35846   1.37316   1.37746
 Alpha virt. eigenvalues --    1.41028   1.41670   1.43148   1.43673   1.45019
 Alpha virt. eigenvalues --    1.45287   1.46496   1.47963   1.48773   1.49475
 Alpha virt. eigenvalues --    1.50296   1.51032   1.51364   1.53186   1.53462
 Alpha virt. eigenvalues --    1.54390   1.56156   1.56424   1.58497   1.58751
 Alpha virt. eigenvalues --    1.59946   1.61083   1.62801   1.63217   1.64549
 Alpha virt. eigenvalues --    1.65854   1.66473   1.68220   1.68540   1.68723
 Alpha virt. eigenvalues --    1.70143   1.71468   1.72517   1.74258   1.74607
 Alpha virt. eigenvalues --    1.76683   1.77719   1.78278   1.79481   1.81975
 Alpha virt. eigenvalues --    1.83959   1.86083   1.89633   1.90756   1.92318
 Alpha virt. eigenvalues --    1.94147   1.98008   1.98608   1.99969   2.00488
 Alpha virt. eigenvalues --    2.02684   2.03552   2.06102   2.07533   2.08646
 Alpha virt. eigenvalues --    2.10343   2.11874   2.14362   2.16162   2.18809
 Alpha virt. eigenvalues --    2.20404   2.23788   2.26458   2.27118   2.28568
 Alpha virt. eigenvalues --    2.32180   2.33191   2.34477   2.36227   2.37704
 Alpha virt. eigenvalues --    2.38628   2.42022   2.42249   2.43306   2.44179
 Alpha virt. eigenvalues --    2.45859   2.46522   2.47229   2.48822   2.50307
 Alpha virt. eigenvalues --    2.50919   2.52206   2.52351   2.53092   2.54007
 Alpha virt. eigenvalues --    2.55018   2.56143   2.57345   2.58215   2.59313
 Alpha virt. eigenvalues --    2.60399   2.61371   2.62827   2.63568   2.65023
 Alpha virt. eigenvalues --    2.65583   2.68012   2.71134   2.72084   2.74366
 Alpha virt. eigenvalues --    2.75061   2.76131   2.77509   2.78557   2.81446
 Alpha virt. eigenvalues --    2.82881   2.86914   2.88272   2.89143   2.91134
 Alpha virt. eigenvalues --    2.91839   2.94032   2.96530   3.01044   3.04762
 Alpha virt. eigenvalues --    3.08225   3.10977   3.15405   3.16422   3.18089
 Alpha virt. eigenvalues --    3.26895   3.33290   3.44651   3.47861   3.50666
 Alpha virt. eigenvalues --    3.63787   3.72717   3.74438   3.76742   3.77403
 Alpha virt. eigenvalues --    3.78748   3.79169   3.80437   3.81229   3.82302
 Alpha virt. eigenvalues --    3.83918   3.84737   3.93564   3.96817   4.08456
 Alpha virt. eigenvalues --    4.18533   4.28720   4.29125   4.31549   4.40133
 Alpha virt. eigenvalues --    4.71736   4.79330   4.89179   5.00641   5.31752
 Alpha virt. eigenvalues --    5.67432  23.72401  23.76206  23.81371  23.86779
 Alpha virt. eigenvalues --   23.87230  23.88708  23.92287  23.93203  23.94136
 Alpha virt. eigenvalues --   49.76356  49.84011
  Beta  occ. eigenvalues --  -19.17671 -19.15587 -10.23173 -10.20175 -10.18548
  Beta  occ. eigenvalues --  -10.17763 -10.17591 -10.17444 -10.17006 -10.15973
  Beta  occ. eigenvalues --  -10.15935  -1.11479  -0.85629  -0.83033  -0.80811
  Beta  occ. eigenvalues --   -0.75803  -0.69423  -0.68766  -0.68006  -0.61415
  Beta  occ. eigenvalues --   -0.56705  -0.55694  -0.51029  -0.48906  -0.48086
  Beta  occ. eigenvalues --   -0.47277  -0.45062  -0.43777  -0.43386  -0.42523
  Beta  occ. eigenvalues --   -0.40133  -0.39960  -0.39237  -0.38824  -0.37150
  Beta  occ. eigenvalues --   -0.36860  -0.36120  -0.34781  -0.34061  -0.32916
  Beta  occ. eigenvalues --   -0.32717  -0.32137  -0.31853  -0.23671
  Beta virt. eigenvalues --   -0.12479   0.02883   0.03957   0.04877   0.05497
  Beta virt. eigenvalues --    0.06002   0.06666   0.08154   0.08959   0.09589
  Beta virt. eigenvalues --    0.10096   0.10660   0.11436   0.12277   0.12912
  Beta virt. eigenvalues --    0.13724   0.14071   0.14746   0.15653   0.16717
  Beta virt. eigenvalues --    0.17426   0.18388   0.18663   0.19885   0.20451
  Beta virt. eigenvalues --    0.22579   0.23512   0.24589   0.25222   0.26024
  Beta virt. eigenvalues --    0.28490   0.29581   0.30234   0.31487   0.32297
  Beta virt. eigenvalues --    0.33658   0.35193   0.37155   0.38744   0.39349
  Beta virt. eigenvalues --    0.41606   0.42930   0.44208   0.45514   0.46742
  Beta virt. eigenvalues --    0.47895   0.48587   0.48997   0.51797   0.53499
  Beta virt. eigenvalues --    0.54588   0.55909   0.56184   0.56771   0.57137
  Beta virt. eigenvalues --    0.57459   0.57800   0.58122   0.58201   0.58728
  Beta virt. eigenvalues --    0.59536   0.59980   0.60461   0.60635   0.61903
  Beta virt. eigenvalues --    0.62132   0.62376   0.63391   0.63926   0.64602
  Beta virt. eigenvalues --    0.65643   0.66436   0.66734   0.69030   0.71099
  Beta virt. eigenvalues --    0.75332   0.75933   0.80912   0.82681   0.84376
  Beta virt. eigenvalues --    0.88812   0.89514   0.91141   0.93640   0.95050
  Beta virt. eigenvalues --    0.98105   0.98895   1.00340   1.00944   1.01901
  Beta virt. eigenvalues --    1.06809   1.07552   1.09605   1.11418   1.12831
  Beta virt. eigenvalues --    1.16834   1.17996   1.20171   1.24042   1.25136
  Beta virt. eigenvalues --    1.27254   1.29278   1.35541   1.35986   1.37338
  Beta virt. eigenvalues --    1.38437   1.41172   1.41756   1.43561   1.44065
  Beta virt. eigenvalues --    1.45293   1.45341   1.46525   1.48375   1.49078
  Beta virt. eigenvalues --    1.49620   1.50468   1.51186   1.52122   1.53287
  Beta virt. eigenvalues --    1.53564   1.54719   1.56377   1.56571   1.58755
  Beta virt. eigenvalues --    1.58912   1.59986   1.61338   1.62901   1.63343
  Beta virt. eigenvalues --    1.64751   1.65983   1.66621   1.68396   1.68734
  Beta virt. eigenvalues --    1.68931   1.70230   1.71496   1.72615   1.74389
  Beta virt. eigenvalues --    1.74913   1.76927   1.77767   1.78310   1.79608
  Beta virt. eigenvalues --    1.82030   1.84247   1.86373   1.90287   1.91043
  Beta virt. eigenvalues --    1.92361   1.94284   1.98191   1.98852   2.00444
  Beta virt. eigenvalues --    2.00657   2.02837   2.03879   2.06440   2.08046
  Beta virt. eigenvalues --    2.08852   2.10489   2.12144   2.14467   2.16501
  Beta virt. eigenvalues --    2.18885   2.20776   2.24066   2.26586   2.27294
  Beta virt. eigenvalues --    2.28654   2.32322   2.33722   2.34552   2.36295
  Beta virt. eigenvalues --    2.37835   2.38868   2.42213   2.42381   2.43377
  Beta virt. eigenvalues --    2.44360   2.46120   2.46694   2.47464   2.49033
  Beta virt. eigenvalues --    2.50387   2.51005   2.52347   2.52614   2.53378
  Beta virt. eigenvalues --    2.54220   2.55490   2.56366   2.57526   2.58508
  Beta virt. eigenvalues --    2.59639   2.60603   2.61510   2.63073   2.63760
  Beta virt. eigenvalues --    2.65102   2.65665   2.68187   2.71257   2.72176
  Beta virt. eigenvalues --    2.74605   2.75274   2.76309   2.77618   2.79419
  Beta virt. eigenvalues --    2.81679   2.83281   2.87149   2.88320   2.89278
  Beta virt. eigenvalues --    2.91552   2.91903   2.94248   2.99126   3.01125
  Beta virt. eigenvalues --    3.05211   3.08552   3.11096   3.15901   3.16803
  Beta virt. eigenvalues --    3.19530   3.27787   3.33539   3.45072   3.48579
  Beta virt. eigenvalues --    3.52466   3.64717   3.73707   3.75077   3.76938
  Beta virt. eigenvalues --    3.77435   3.79068   3.79230   3.80467   3.81355
  Beta virt. eigenvalues --    3.82366   3.84059   3.84870   3.94027   3.96826
  Beta virt. eigenvalues --    4.08571   4.18704   4.29122   4.29391   4.31786
  Beta virt. eigenvalues --    4.40398   4.72271   4.80543   4.90003   5.05070
  Beta virt. eigenvalues --    5.32210   5.68158  23.73252  23.76208  23.81372
  Beta virt. eigenvalues --   23.86812  23.87247  23.88724  23.92269  23.93206
  Beta virt. eigenvalues --   23.94138  49.77511  49.84344
          Condensed to atoms (all electrons):
              1          2          3          4          5          6
     1  C    4.835886   0.404926   0.389550   0.406428   0.325425  -0.026262
     2  H    0.404926   0.563351  -0.029127  -0.025088  -0.032455  -0.003050
     3  H    0.389550  -0.029127   0.597515  -0.031083  -0.035195   0.005031
     4  H    0.406428  -0.025088  -0.031083   0.545965  -0.039378  -0.006276
     5  C    0.325425  -0.032455  -0.035195  -0.039378   5.536372   0.278879
     6  H   -0.026262  -0.003050   0.005031  -0.006276   0.278879   0.526709
     7  C   -0.041804  -0.007921  -0.005809   0.009349   0.296129  -0.024752
     8  H   -0.005610   0.003979  -0.000610   0.000303  -0.041359  -0.000985
     9  H   -0.004249  -0.000163   0.004449  -0.000709  -0.033275   0.004463
    10  C    0.006550   0.000070  -0.000189  -0.000348  -0.055090  -0.004864
    11  H   -0.000007   0.000088  -0.000009  -0.000025  -0.002973   0.003302
    12  H    0.000302  -0.000030  -0.000039   0.000071  -0.006360  -0.001917
    13  C   -0.000151  -0.000045  -0.000018   0.000015   0.006115  -0.000140
    14  H   -0.000005   0.000004  -0.000004   0.000000  -0.000019   0.000013
    15  H   -0.000022  -0.000016   0.000008   0.000000   0.000204   0.000011
    16  C    0.000003   0.000000   0.000000   0.000000  -0.000269  -0.000018
    17  H    0.000000   0.000000   0.000000   0.000000  -0.000019  -0.000008
    18  C    0.000000   0.000000   0.000000   0.000000   0.000004   0.000000
    19  H    0.000000   0.000000   0.000000   0.000000   0.000000   0.000000
    20  H    0.000000   0.000000   0.000000   0.000000   0.000000   0.000000
    21  H    0.000000   0.000000   0.000000   0.000000   0.000001   0.000000
    22  C   -0.050994   0.007465  -0.006760  -0.007219   0.306052  -0.051648
    23  H    0.007444  -0.000483  -0.000709   0.001461  -0.056481  -0.006377
    24  H   -0.003344   0.000163   0.003897  -0.002630  -0.029911   0.003609
    25  C    0.000000   0.000000   0.000000   0.000000   0.000017   0.000003
    26  H    0.000000   0.000000   0.000000   0.000000  -0.000001   0.000000
    27  H    0.000000   0.000000   0.000000   0.000000   0.000000  -0.000001
    28  H   -0.000001   0.000000   0.000000   0.000000   0.000050   0.000029
    29  O   -0.000114  -0.000415  -0.001091   0.015844  -0.033451  -0.056014
    30  O    0.002923   0.000178  -0.000154   0.000722  -0.096284   0.134505
              7          8          9         10         11         12
     1  C   -0.041804  -0.005610  -0.004249   0.006550  -0.000007   0.000302
     2  H   -0.007921   0.003979  -0.000163   0.000070   0.000088  -0.000030
     3  H   -0.005809  -0.000610   0.004449  -0.000189  -0.000009  -0.000039
     4  H    0.009349   0.000303  -0.000709  -0.000348  -0.000025   0.000071
     5  C    0.296129  -0.041359  -0.033275  -0.055090  -0.002973  -0.006360
     6  H   -0.024752  -0.000985   0.004463  -0.004864   0.003302  -0.001917
     7  C    4.989070   0.411674   0.386931   0.352517  -0.042039  -0.034302
     8  H    0.411674   0.585372  -0.033895  -0.040711  -0.007203   0.008210
     9  H    0.386931  -0.033895   0.607969  -0.039541   0.008890  -0.007676
    10  C    0.352517  -0.040711  -0.039541   4.947953   0.408367   0.402669
    11  H   -0.042039  -0.007203   0.008890   0.408367   0.586478  -0.034765
    12  H   -0.034302   0.008210  -0.007676   0.402669  -0.034765   0.589442
    13  C   -0.055307  -0.005104  -0.004806   0.355848  -0.039478  -0.035585
    14  H   -0.004983  -0.000639   0.004984  -0.040474   0.008935  -0.008198
    15  H   -0.005752   0.005678  -0.000725  -0.040932  -0.006598   0.008656
    16  C    0.006262  -0.000148   0.000130  -0.051485  -0.003089  -0.005190
    17  H   -0.000084   0.000048   0.000006  -0.006596   0.005538  -0.000584
    18  C   -0.000266  -0.000031   0.000003   0.007481   0.000088  -0.000048
    19  H   -0.000010   0.000008  -0.000015  -0.000054   0.000019   0.000011
    20  H    0.000013   0.000001   0.000000  -0.000408  -0.000008   0.000019
    21  H   -0.000027  -0.000012   0.000006   0.000041   0.000017  -0.000005
    22  C   -0.054501   0.006774  -0.008251  -0.006622   0.000370   0.001751
    23  H    0.003231   0.000055  -0.001121  -0.001117   0.000465   0.008215
    24  H   -0.003941  -0.000369   0.001853   0.000885   0.000031  -0.000163
    25  C    0.000027  -0.000003  -0.000029  -0.006495  -0.001056   0.002501
    26  H    0.000012   0.000002  -0.000003   0.000042  -0.000101  -0.000098
    27  H   -0.000078   0.000006  -0.000018  -0.000794   0.000087   0.000469
[...]
 774,0.00002709,-0.00007407,-0.00004045,0.00016877,-0.00007190,-0.00006
 300,0.00000673,-0.00009926,0.00000059,-0.00000338,0.00000709,0.0000331
 2,0.00003728,0.00000347,-0.00000768,0.00003600,0.00002374,-0.00000015,
 -0.00000271,-0.00000085,0.00000905,-0.00001845,-0.00000957,-0.00000166
 ,0.00000277,0.00000387,0.00001567,-0.00000232,-0.00000179,-0.00000361,
 0.00000072,0.00000191,0.04495397,-0.07117467,-0.05313150,0.00968581,-0
 .00349646,-0.01183605,-0.04986096,0.07699017,0.00038538,-0.00054007,0.
 00186144,-0.00006959,-0.00014586,0.00030952,-0.00038895,0.00089444,-0.
 00006851,-0.00027825,-0.00001583,-0.00047015,0.00918598,-0.00309303,-0
 .01102250,-0.00012572,-0.00049417,-0.00117223,-0.00038444,0.00042600,-
 0.00106773,0.00035362,0.00015985,0.00004400,0.00031534,0.00015144,0.00
 015744,-0.00026473,0.00028545,-0.00004204,-0.00009101,-0.00000504,0.00
 011157,0.00004095,-0.00020745,0.00003745,0.00007307,-0.00009401,0.0000
 9019,0.00002676,0.00000854,0.00000836,-0.00003610,-0.00003095,-0.00000
 157,0.00000109,0.00001835,0.00000910,-0.00000329,-0.00000201,0.0000064
 7,0.00000432,-0.00001310,-0.00000242,0.00000059,0.00000205,0.00000400,
 0.00000838,0.00000017,-0.00000202,-0.00000269,0.00000033,-0.00000069,0
 .10605332,-0.06032415,-0.18832533,-0.00482322,0.00376767,0.00978831,-0
 .11847050,0.06995821,0.21283672,-0.00003834,-0.00006192,-0.00005200,0.
 00001236,-0.00000419,0.00001346,0.00002621,-0.00001374,0.00000008,-0.0
 0002044,0.00000995,-0.00000035,0.00007651,0.00010662,0.00028249,-0.000
 09881,-0.00015786,-0.00008470,-0.00012163,0.00000513,-0.00021379,0.000
 02264,-0.00021680,0.00011858,0.00006409,-0.00003811,-0.00004439,0.0006
 4531,0.00096980,-0.00022602,-0.00007859,0.00003319,-0.00028973,-0.0008
 3975,0.00051915,0.00021518,-0.00093544,0.02476500,-0.01283599,0.000847
 64,-0.00098654,-0.00042385,-0.00411044,0.00342198,0.00139497,-0.078096
 32,0.00398098,-0.00197913,-0.00024459,0.00414794,-0.00215810,-0.001347
 18,-0.02894022,0.01517143,0.00102395,0.00047444,0.00033269,0.00073851,
 -0.00075794,0.00039307,-0.00533593,-0.00402533,-0.00017929,-0.00012949
 ,0.00004320,-0.00011875,0.00001759,0.00000787,0.00003859,0.00002188,0.
 00000016,0.00000698,0.57027173,-0.00003799,-0.00002580,-0.00001040,-0.
 00000098,-0.00000486,-0.00000198,0.00000506,-0.00000936,0.00000026,-0.
 00000445,0.00001366,-0.00000390,-0.00008547,0.00019900,-0.00000818,-0.
 00003272,0.00000235,-0.00003066,-0.00066549,-0.00054785,0.00031957,0.0
 0015847,-0.00011690,-0.00010478,0.00002312,-0.00003393,-0.00004376,0.0
 0061438,0.00094494,-0.00066746,0.00014920,0.00004398,0.00015031,-0.000
 03343,-0.00063262,0.00070176,0.00612760,-0.02304434,0.00830556,-0.0011
 8642,0.00097858,0.00088511,0.00230349,-0.00063082,-0.00067352,0.001023
 78,-0.15161296,0.04168170,-0.00017471,0.00250573,-0.00074709,-0.005765
 65,-0.02224118,0.00991049,0.00133491,0.00079510,0.00036552,0.00169075,
 0.00124598,-0.00023196,-0.00180011,-0.00080159,-0.00039316,-0.00007782
 ,0.00003999,-0.00003457,-0.00000944,-0.00002965,0.00005253,0.00003341,
 -0.00001414,0.00000211,0.00770460,0.48609309,0.00005478,0.00005001,0.0
 0002596,-0.00000771,-0.00000231,-0.00000660,-0.00001044,-0.00000509,-0
 .00000269,0.00002408,-0.00000781,0.00000660,-0.00007252,-0.00008951,-0
 .00016635,0.00001092,0.00007394,0.00001343,0.00017233,-0.00001485,0.00
 039354,0.00002169,-0.00001466,-0.00009200,-0.00001242,-0.00001849,-0.0
 0003831,0.00009659,-0.00021640,-0.00030301,0.00010115,-0.00000021,0.00
 009111,-0.00010057,-0.00011330,0.00042411,-0.00166912,-0.00827748,0.00
 545245,0.00040543,-0.00142953,0.00087424,0.00237881,-0.00284634,-0.000
 17148,-0.00146499,0.04367015,-0.10387469,-0.00070187,0.03107432,-0.016
 85664,0.00200194,-0.00111497,0.00171194,-0.00059776,-0.00138544,0.0008
 3248,-0.00002200,0.00022584,-0.00015953,-0.00118366,-0.00161081,0.0006
 5379,0.00000117,-0.00001337,0.00006511,-0.00001841,0.00000095,0.000036
 02,0.00003213,-0.00001506,-0.00000442,-0.00409628,0.04548654,0.5320243
 2,-0.00003751,-0.00003253,-0.00002018,0.00000676,0.00000429,0.00000066
 ,0.00000982,0.00000186,0.00000349,-0.00002077,0.00000213,-0.00000336,0
 .00010052,0.00008639,0.00012556,-0.00000264,-0.00009942,-0.00001849,0.
 00009296,0.00012760,-0.00023110,-0.00010879,0.00008379,0.00003965,-0.0
 0001779,-0.00000581,0.00003124,-0.00003424,-0.00015286,0.00042044,-0.0
 0000217,0.00002874,-0.00007147,0.00034871,0.00025686,-0.00025908,0.000
 70579,-0.00055771,-0.00073438,0.00000236,-0.00006776,0.00010243,0.0000
 3755,0.00012217,0.00011065,-0.00141474,-0.00022157,-0.00003109,-0.0000
 4228,0.00024779,-0.00046505,0.00070667,-0.00103774,0.00000813,-0.00000
 642,0.00001910,-0.00004186,0.00047138,0.00001609,0.00010791,0.00016281
 ,-0.00000015,-0.00020077,0.00007661,-0.00001217,-0.00000108,0.00000385
 ,0.00003350,-0.00003593,-0.00002445,0.00001823,0.00000061,-0.20315127,
 0.10856916,0.06638554,0.21963100,0.00003926,0.00003747,0.00001993,-0.0
 0000748,0.00000085,-0.00000347,-0.00001075,0.00000156,-0.00000223,0.00
 001756,-0.00000657,0.00000405,-0.00003818,-0.00010122,-0.00013795,0.00
 002631,0.00007688,0.00003328,0.00025845,0.00020250,-0.00000601,-0.0000
 8139,0.00010080,-0.00001500,-0.00002591,0.00000967,0.00001019,-0.00082
 151,-0.00025385,0.00011412,0.00008480,0.00000534,0.00003636,0.00019342
 ,0.00026963,-0.00022275,-0.00155318,-0.00462974,0.00417984,-0.00029907
 ,0.00027872,0.00006891,0.00160029,-0.00122483,-0.00032313,0.02239882,-
 0.01617620,-0.01109964,-0.00013258,0.00108240,0.00022931,0.00147095,0.
 00093989,-0.00096744,-0.00007374,-0.00006770,-0.00000106,-0.00119364,-
 0.00003859,0.00038202,-0.00013805,0.00053649,0.00015676,0.00004373,-0.
 00001967,0.00006175,-0.00000685,-0.00000739,-0.00000142,0.00000118,-0.
 00000444,-0.00000683,0.10742728,-0.12066977,-0.04578593,-0.11906891,0.
 13272723,-0.00000678,-0.00000980,-0.00000348,0.00000152,-0.00000135,0.
 00000301,0.00000186,-0.00000039,-0.00000080,-0.00000184,0.00000282,-0.
 00000056,-0.00000193,0.00000301,0.00002327,-0.00000496,-0.00000752,-0.
 00000556,-0.00003406,-0.00000866,-0.00004153,0.00000260,-0.00002547,0.
 00002869,-0.00000263,0.00002402,0.00000498,0.00018062,0.00017345,0.000
 07973,0.00001030,-0.00005151,0.00001801,-0.00005772,-0.00010002,-0.000
 08159,0.00046644,0.00258512,-0.00140571,-0.00008969,0.00035013,0.00034
 734,-0.00056229,0.00061717,0.00056991,-0.01333768,0.00930221,0.0050221
 8,-0.00032325,-0.00070342,0.00056708,-0.00043964,-0.00045699,0.0003531
 3,0.00018281,-0.00007852,-0.00007215,0.00015113,-0.00012993,0.00019216
 ,-0.00024738,-0.00011371,-0.00009686,-0.00004408,0.00001736,-0.0000298
 8,0.00000600,-0.00001156,-0.00000051,-0.00000038,-0.00000155,0.0000014
 6,0.06663798,-0.04669900,-0.07502611,-0.07340359,0.04834677,0.07825712
 ,-0.00000198,0.00000020,0.00000655,0.00000023,-0.00000520,0.00000246,-
 0.00000218,0.00000188,-0.00000052,0.00000270,0.00000194,-0.00000129,-0
 .00000604,-0.00002587,-0.00002293,0.00001585,0.00001280,-0.00000116,0.
 00000821,-0.00000305,0.00004176,0.00001451,-0.00000389,-0.00000048,-0.
 00002394,0.00004779,0.00002704,-0.00012816,0.00009647,0.00001960,0.000
 10543,-0.00010727,0.00016398,-0.00010074,-0.00012616,-0.00013449,0.000
 24730,-0.00035130,-0.00109035,0.00010123,0.00013578,0.00016760,-0.0000
 0610,-0.00002798,0.00019236,-0.00132844,0.00048370,-0.00158404,0.00066
 959,0.00035551,-0.00009400,0.00024108,0.00022334,0.00109591,0.00022395
 ,-0.00024534,-0.00010849,0.00001912,0.00003339,0.00011812,-0.00008527,
 0.00006952,-0.00017322,-0.00006839,0.00002817,-0.00003479,0.00000709,-
 0.00002203,-0.00000430,-0.00000012,-0.00000200,0.00000510,-0.05029255,
 -0.00441752,-0.02645396,0.00336049,0.00302458,0.02567485,0.04921721,-0
 .00000836,-0.00000590,0.00000359,0.00000152,-0.00000123,0.00000110,0.0
 0000156,0.00000207,0.00000009,-0.00000339,0.00000011,-0.00000200,0.000
 02553,-0.00000667,0.00001128,0.00000356,-0.00001574,-0.00000364,0.0000
 4607,0.00001924,-0.00003625,-0.00000974,0.00001007,0.00000861,0.000016
 42,-0.00000197,-0.00000036,0.00005903,0.00001300,-0.00008577,-0.000154
 76,-0.00007255,-0.00002803,0.00004594,-0.00000642,-0.00005726,-0.00051
 460,0.00197384,0.00102261,0.00007450,-0.00008098,-0.00078822,-0.000314
 88,0.00026814,-0.00032078,0.00350128,0.00341552,0.03014344,0.00016084,
 -0.00509022,0.00322909,0.00093047,0.00158972,0.00056379,-0.00038404,-0
 .00017186,-0.00073660,-0.00009189,-0.00008581,-0.00009454,0.00018906,0
 .00017183,-0.00034652,-0.00001899,0.00000787,-0.00002022,0.00000883,0.
 00000362,-0.00001004,-0.00000486,0.00000381,0.00000390,-0.00425604,-0.
 05208911,-0.03599883,-0.00301817,-0.00300709,-0.01676587,0.00407044,0.
 05610623,-0.00002275,-0.00001825,-0.00000652,0.00000362,-0.00000703,0.
 00000310,0.00000199,0.00000344,0.00000388,-0.00000729,0.00000421,-0.00
 000391,0.00002468,0.00003352,0.00003423,0.00001138,-0.00002819,-0.0000
 1939,-0.00004189,-0.00004358,-0.00002805,-0.00000023,0.00000002,0.0000
 0629,-0.00002940,0.00003847,0.00003482,-0.00014372,0.00020022,0.000051
 50,0.00016078,-0.00003819,0.00012334,-0.00010965,-0.00004099,-0.000165
 63,0.00059393,-0.00105592,0.00062343,-0.00061974,0.00067713,0.00068024
 ,0.00008933,0.00004152,0.00041772,-0.00214060,-0.00175871,-0.01767269,
 0.00011913,0.00353269,-0.00005752,-0.00042874,-0.00084352,0.00046522,0
 .00082183,0.00063581,0.00052309,-0.00002870,0.00002413,-0.00004744,0.0
 0006089,0.00011537,0.00044597,-0.00005077,0.00002686,-0.00005450,0.000
 01490,-0.00001090,-0.00000862,-0.00000869,0.00000372,0.00000814,-0.026
 37350,-0.03588036,-0.29144325,-0.00115503,-0.00160818,-0.00994565,0.02
 974178,0.03686450,0.32021396,0.00002172,0.00002083,0.00001629,-0.00000
 244,0.00000029,-0.00000266,-0.00000747,0.00000441,0.00000041,0.0000078
 5,-0.00000554,0.00000153,0.00000816,-0.00009008,-0.00007116,0.00002297
 ,0.00005125,0.00002260,0.00019811,0.00023395,-0.00009391,-0.00007369,0
 .00008419,0.00000863,-0.00000470,0.00000542,0.00001018,-0.00097869,0.0
 0049625,0.00026227,0.00001420,-0.00007546,-0.00002590,-0.00080293,0.00
 139921,-0.00029853,-0.00005631,-0.00018695,0.00039190,-0.00002672,0.00
 005618,0.00001734,0.00011405,-0.00015170,-0.00007476,0.00202027,0.0017
 2006,0.00084527,0.00034144,-0.00037891,0.00055795,0.00072194,-0.000156
 17,0.00067730,0.00002490,0.00017370,-0.00002277,0.00040586,0.00013394,
 -0.00021411,0.00007834,-0.00009603,-0.00020513,0.00002094,-0.00000118,
 0.00001369,-0.00000782,-0.00000952,0.00000466,0.00000007,-0.00000377,0
 .00000112,-0.22906086,-0.11555700,-0.03531222,-0.02078160,-0.01312452,
 -0.00477898,-0.00220424,-0.00033672,-0.00047950,0.25002458,-0.00003441
 ,-0.00002430,-0.00001303,0.00000480,0.00000349,-0.00000254,0.00000583,
 0.00000470,0.00000568,-0.00001821,-0.00000104,-0.00000347,0.00013837,0
 .00004190,0.00009461,0.00002197,-0.00008555,-0.00000951,0.00035050,0.0
 0034821,-0.00032097,-0.00020667,0.00018454,0.00003782,-0.00006430,0.00
 002158,0.00008106,-0.00019175,-0.00066149,0.00049875,0.00010283,-0.000
 06127,0.00008036,0.00139502,0.00016740,-0.00048435,-0.00099194,0.00088
 704,-0.00044652,0.00006979,-0.00007896,0.00003665,0.00002796,0.0001920
 1,0.00011801,-0.02440616,-0.01377120,-0.00656788,0.00031631,0.00133056
 ,0.00002412,0.00198160,-0.00487985,0.00358004,0.00032999,0.00018304,-0
 .00006111,-0.00007462,0.00024639,0.00015185,-0.00173434,-0.00094330,0.
 00001277,0.00010548,-0.00004019,0.00001777,0.00000969,0.00005172,-0.00
 005215,-0.00003387,0.00001885,0.00000203,-0.11417011,-0.12036747,-0.02
 160806,0.01464432,0.00995558,0.00373840,-0.00326308,-0.00296169,-0.000
 89324,0.12580079,0.13022015,0.00000643,0.00000537,-0.00000830,-0.00000
 170,0.00000891,-0.00000245,-0.00000060,0.00000006,-0.00000034,-0.00000
 115,-0.00000298,0.00000302,-0.00001709,0.00001572,0.00000498,-0.000012
 23,0.00001575,0.00002262,0.00000852,0.00007031,-0.00017004,-0.00002470
 ,0.00005035,0.00000731,0.00002828,-0.00004843,-0.00002103,-0.00026955,
 -0.00023021,0.00056604,-0.00008118,0.00014140,-0.00026887,0.00021416,0
 .00013311,0.00010140,-0.00020685,-0.00069080,0.00022633,-0.00009942,-0
 .00002115,0.00000603,0.00012797,-0.00004374,-0.00007314,0.01495685,0.0
 0775594,0.00198003,0.00036885,-0.00073891,0.00056629,-0.00061963,0.002
 92349,-0.00138690,0.00020662,0.00033169,0.00030762,-0.00036146,-0.0000
 9297,-0.00005360,0.00077258,0.00083836,0.00047178,0.00011297,-0.000044
 98,0.00006439,-0.00000874,0.00001257,-0.00001577,-0.00001211,0.0000047
 5,-0.00001010,-0.03557516,-0.02236775,-0.05445097,0.00937109,0.0065569
 8,0.00122359,-0.02760112,-0.01657325,-0.00423510,0.03874531,0.02201921
 ,0.05522518,-0.00202806,-0.00179464,-0.00652081,0.00000640,0.00041606,
 0.00020526,0.00167110,-0.00151653,0.00047962,0.00149159,-0.00021210,0.
 00045268,-0.02249401,-0.01995517,0.01983174,-0.02075793,-0.03357217,0.
 00277768,0.00254131,-0.00455599,-0.00128254,-0.00109580,-0.00079116,-0
 .00000337,-0.00118069,-0.00089294,0.00011191,0.00075866,-0.00044306,-0
 .00000466,0.00004515,-0.00006747,0.00003629,0.00001173,-0.00002745,-0.
 00017343,0.00002977,0.00021239,0.00005225,-0.00002185,-0.00001733,-0.0
 0001105,-0.00003252,-0.00003129,-0.00001833,0.00008886,-0.00021733,-0.
 00014754,-0.00000281,0.00002513,0.00002323,-0.00006125,0.00013431,0.00
 004463,0.00001281,-0.00001530,-0.00001813,-0.00011220,0.00001646,0.000
 01550,0.00002971,-0.00001013,-0.00000705,-0.14028991,-0.03425327,-0.02
 410109,-0.02562939,-0.02552397,-0.02258268,0.01333916,0.01202324,0.010
 28053,-0.00008275,0.00004190,0.00006597,-0.00010240,0.00005482,0.00001
 076,0.00003771,-0.00001128,-0.00000581,0.00002752,-0.00011275,-0.00002
 388,0.28220493,-0.00003867,0.00207327,0.00348841,-0.00028248,-0.000033
 34,-0.00006900,-0.00134519,0.00061562,-0.00025179,-0.00062744,0.000086
 74,-0.00039093,-0.04415525,-0.04079146,-0.01505652,-0.01592570,0.00175
 805,0.01503387,0.00190767,-0.00738694,0.00398266,-0.00235372,-0.001008
 93,-0.00027777,0.00046941,0.00025792,-0.00016315,0.00020574,0.00034540
 ,-0.00040461,-0.00003688,-0.00001115,0.00009827,-0.00012582,-0.0000279
 1,0.00004954,0.00002487,0.00011392,0.00026163,0.00002353,-0.00000471,-
 0.00001030,0.00006277,0.00001565,-0.00003841,0.00002424,-0.00007003,-0
 .00008255,-0.00000435,0.00000749,0.00001694,-0.00002275,0.00005356,0.0
 0002226,0.00000523,-0.00000659,-0.00000601,-0.00004397,0.00000598,0.00
 000360,0.00001482,0.00000160,-0.00000687,-0.04830997,-0.08378435,-0.01
 127151,-0.00231096,0.01114249,0.00100892,-0.00569608,-0.00831087,-0.00
 729965,-0.00005709,0.00001422,0.00003753,-0.00003985,0.00002580,-0.000
 00285,0.00001134,-0.00000190,-0.00000392,0.00001208,-0.00002508,-0.000
 00810,0.11290177,0.17238174,0.00122510,0.00527268,0.01156382,0.0010734
 6,-0.00101425,0.00037544,-0.00372829,0.00255769,-0.00078147,-0.0009575
 7,0.00015861,-0.00039826,0.00649423,-0.02430871,-0.03875775,0.03524497
 ,0.06507722,0.00973743,-0.00049892,0.00248740,0.00869130,-0.00030229,0
 .00005063,0.00010334,0.00379461,0.00289822,-0.00056459,-0.00194937,0.0
 0216667,-0.00070949,-0.00019137,0.00001357,0.00020290,0.00077468,-0.00
 110435,0.00038952,0.00020859,-0.00092553,0.00029112,0.00010353,0.00011
 920,-0.00002108,-0.00020993,-0.00013530,0.00003487,-0.00001107,0.00037
 408,0.00011479,0.00000796,-0.00003718,0.00001429,0.00009794,-0.0002077
 5,-0.00003844,-0.00000958,0.00003037,0.00002282,0.00013537,-0.00000133
 ,-0.00002284,-0.00005208,-0.00002566,0.00002055,-0.04162331,-0.0292838
 3,-0.08107538,-0.01702200,-0.01383505,-0.01265011,-0.01780938,-0.02187
 117,-0.02015361,0.00018354,0.00003517,-0.00007844,0.00005814,-0.000088
 12,0.00002341,0.00001881,0.00002566,0.00005888,-0.00004618,0.00003894,
 -0.00006221,-0.03320799,0.05527558,0.25143195,0.00026453,0.00601047,0.
 01229019,0.00074280,-0.00110690,0.00005896,-0.00270040,0.00182363,-0.0
 0113594,-0.00043014,0.00023658,-0.00032308,0.00030029,-0.04800412,-0.0
 6601206,0.00383396,0.06847014,0.03297599,0.00003064,0.00124968,0.00828
 203,-0.00051616,-0.00015550,0.00008299,0.00251990,0.00207410,-0.000749
 65,-0.00194694,0.00205872,-0.00031878,-0.00029596,0.00026219,-0.000322
 47,0.00038189,-0.00083544,0.00084051,0.00044833,-0.00090532,0.00025158
 ,0.00001592,0.00002812,-0.00009239,-0.00023412,-0.00014130,0.00000882,
 0.00002349,0.00029633,0.00009972,0.00002282,-0.00001728,-0.00003353,0.
 00008716,-0.00015074,-0.00002748,-0.00001591,0.00001402,0.00000029,0.0
 0009126,0.00000347,-0.00001491,-0.00003902,-0.00002791,0.00001710,0.01
 955579,0.00531042,0.01114829,0.00232894,0.00048943,-0.00079013,-0.0002
 7933,-0.00591291,-0.00180464,0.00021597,0.00006939,-0.00002859,0.00002
 980,-0.00006570,0.00001002,-0.00002355,-0.00000733,0.00000178,-0.00004
 545,-0.00000305,-0.00000305,-0.08840485,0.00571269,0.06819838,0.064038
 33,-0.00103102,0.00649093,0.00975375,0.00070751,-0.00104972,0.00050162
 ,-0.00164065,0.00111837,-0.00098807,-0.00000686,-0.00011543,-0.0003071
 2,-0.00591797,-0.08886799,-0.10418389,0.03794702,0.07580145,0.03831485
 ,0.00171766,0.00266711,0.00753387,-0.00030122,0.00013007,0.00022859,0.
 00132014,0.00164306,-0.00144844,-0.00186338,0.00124915,-0.00014988,-0.
 00082394,0.00031739,0.00041281,0.00023317,-0.00052677,0.00018701,-0.00
 009829,-0.00032288,0.00050340,0.00023835,0.00007503,0.00000635,-0.0000
 4949,-0.00002048,-0.00000810,-0.00005828,0.00018623,0.00005678,-0.0000
 0597,-0.00002114,0.00000599,0.00004847,-0.00010434,-0.00002602,-0.0000
 0708,0.00001416,0.00001447,0.00007856,-0.00000703,-0.00001484,-0.00002
 607,-0.00000619,0.00000751,0.01466266,-0.00574823,-0.01688629,-0.00134
 416,0.00146139,-0.00033019,-0.00530462,-0.00508262,-0.00340839,0.00006
 858,-0.00000427,-0.00005087,0.00005265,-0.00004374,0.00000767,0.000003
 84,0.00001408,0.00002935,-0.00001900,0.00004424,-0.00002068,-0.0018047
 3,-0.04743617,-0.04374343,-0.03677588,0.05814435,-0.00174105,-0.005013
 78,-0.00891280,-0.00029381,0.00050486,0.00002007,0.00325348,-0.0017962
 0,0.00063573,0.00162695,-0.00054497,0.00018329,0.00194172,0.00589614,0
 .02752186,-0.00695158,-0.04113965,-0.03874139,0.00114483,0.00010253,-0
 .00672446,0.00047057,0.00008640,0.00002171,-0.00252092,-0.00166295,0.0
 0024629,0.00106473,-0.00110517,-0.00044141,-0.00011749,-0.00008196,0.0
 0040742,-0.00043066,0.00028989,-0.00000599,-0.00014071,0.00060579,0.00
 014685,0.00003150,-0.00000986,0.00007246,0.00005467,0.00000233,-0.0000
 1784,0.00000514,-0.00033758,-0.00019937,-0.00002600,0.00003225,0.00004
 865,-0.00008871,0.00018443,0.00005106,0.00002095,-0.00001936,-0.000006
 28,-0.00013192,0.00000874,0.00001647,0.00004116,0.00000323,-0.00001831
 ,0.01411381,-0.02830492,-0.06889940,0.00276092,0.00277366,0.00462883,-
 0.00504544,-0.00052692,-0.00293088,-0.00013802,0.00000191,0.00006939,-
 0.00009306,0.00006889,-0.00000471,0.00002922,-0.00000946,-0.00000555,0
 .00004934,-0.00007523,-0.00001779,0.05372031,-0.04393527,-0.12776274,-
 0.06260995,0.11400221,0.22061882\\-0.00000022,-0.00000252,-0.00000348,
 -0.00000034,-0.00000235,-0.00000342,-0.00000174,-0.00000136,-0.0000036
 9,-0.00000024,-0.00000262,-0.00000364,-0.00000064,-0.00000166,-0.00000
 219,0.00000172,-0.00000179,-0.00000079,-0.00000058,-0.00000072,-0.0000
 0172,-0.00000063,-0.00000073,-0.00000174,-0.00000134,0.00000017,-0.000
 00116,-0.00000013,0.00000020,0.00000024,0.00000150,-0.00000038,0.00000
 013,0.00000009,0.00000009,-0.00000016,-0.00000058,0.00000110,0.0000008
 9,-0.00000096,0.00000129,0.00000070,-0.00000059,0.00000074,0.00000035,
 0.00000144,0.00000145,0.00000243,0.00000123,0.00000067,0.00000191,-0.0
 0000016,0.00000199,0.00000231,-0.00000108,0.00000253,0.00000238,0.0000
 0058,0.00000214,0.00000348,-0.00000008,0.00000162,0.00000198,-0.000000
 20,-0.00000062,-0.00000133,-0.00000037,-0.00000036,-0.00000084,-0.0000
 0109,-0.00000090,-0.00000218,0.00000074,0.00000152,0.00000277,0.000001
 30,0.00000201,0.00000375,-0.00000049,0.00000192,0.00000299,0.00000097,
 0.00000084,0.00000285,0.00000067,-0.00000211,-0.00000178,0.00000120,-0
 .00000218,-0.00000103\\\@
 Job cpu time:  0 days  9 hours 36 minutes 32.8 seconds.
 File lengths (MBytes):  RWF=  71473 Int=      0 D2E=      0 Chk=     26 Scr=      1
 Normal termination of Gaussian 09 at Mon Feb 17 17:21:33 2014.
