Title Card Required                                                     
Freq      UB3LYP                                                      6-31G(d)            
Number of atoms                            I                2
Info1-9                                    I   N=           9
          16          11        1002           0           0         100
           6          18        -502
Charge                                     I                0
Multiplicity                               I                3
Number of electrons                        I               16
Number of alpha electrons                  I                9
Number of beta electrons                   I                7
Number of basis functions                  I               30
Number of independent functions            I               30
Number of point charges in /Mol/           I                0
Number of translation vectors              I                0
Atomic numbers                             I   N=           2
           8           8
Nuclear charges                            R   N=           2
  8.00000000E+00  8.00000000E+00
Current cartesian coordinates              R   N=           6
  0.00000000E+00  0.00000000E+00  1.14762395E+00  1.40543400E-16  0.00000000E+00
 -1.14762395E+00
Force Field                                I                0
Int Atom Types                             I   N=           2
           0           0
MM charges                                 R   N=           2
  0.00000000E+00  0.00000000E+00
Integer atomic weights                     I   N=           2
          16          16
Real atomic weights                        R   N=           2
  1.59949146E+01  1.59949146E+01
Atom fragment info                         I   N=           2
           0           0
Atom residue num                           I   N=           2
           0           0
Nuclear spins                              I   N=           2
           0           0
Nuclear ZEff                               R   N=           2
 -5.60000000E+00 -5.60000000E+00
Nuclear ZNuc                               R   N=           2
  8.00000000E+00  8.00000000E+00
Nuclear QMom                               R   N=           2
  0.00000000E+00  0.00000000E+00
Nuclear GFac                               R   N=           2
  0.00000000E+00  0.00000000E+00
MicOpt                                     I   N=           2
          -1          -1
Number of contracted shells                I                8
Number of primitive shells                 I               22
Pure/Cartesian d shells                    I                1
Pure/Cartesian f shells                    I                0
Highest angular momentum                   I                2
Largest degree of contraction              I                6
Shell types                                I   N=           8
           0          -1          -1           2           0          -1
          -1           2
Number of primitives per shell             I   N=           8
           6           3           1           1           6           3
           1           1
Shell to atom map                          I   N=           8
           1           1           1           1           2           2
           2           2
Primitive exponents                        R   N=          22
  5.48467166E+03  8.25234946E+02  1.88046958E+02  5.29645000E+01  1.68975704E+01
  5.79963534E+00  1.55396162E+01  3.59993359E+00  1.01376175E+00  2.70005823E-01
  8.00000000E-01  5.48467166E+03  8.25234946E+02  1.88046958E+02  5.29645000E+01
  1.68975704E+01  5.79963534E+00  1.55396162E+01  3.59993359E+00  1.01376175E+00
  2.70005823E-01  8.00000000E-01
Contraction coefficients                   R   N=          22
  1.83107443E-03  1.39501722E-02  6.84450781E-02  2.32714336E-01  4.70192898E-01
  3.58520853E-01 -1.10777550E-01 -1.48026263E-01  1.13076702E+00  1.00000000E+00
  1.00000000E+00  1.83107443E-03  1.39501722E-02  6.84450781E-02  2.32714336E-01
  4.70192898E-01  3.58520853E-01 -1.10777550E-01 -1.48026263E-01  1.13076702E+00
  1.00000000E+00  1.00000000E+00
P(S=P) Contraction coefficients            R   N=          22
  0.00000000E+00  0.00000000E+00  0.00000000E+00  0.00000000E+00  0.00000000E+00
  0.00000000E+00  7.08742682E-02  3.39752839E-01  7.27158577E-01  1.00000000E+00
  0.00000000E+00  0.00000000E+00  0.00000000E+00  0.00000000E+00  0.00000000E+00
  0.00000000E+00  0.00000000E+00  7.08742682E-02  3.39752839E-01  7.27158577E-01
  1.00000000E+00  0.00000000E+00
Coordinates of each shell                  R   N=          24
  0.00000000E+00  0.00000000E+00  1.14762395E+00  0.00000000E+00  0.00000000E+00
  1.14762395E+00  0.00000000E+00  0.00000000E+00  1.14762395E+00  0.00000000E+00
  0.00000000E+00  1.14762395E+00  1.40543400E-16  0.00000000E+00 -1.14762395E+00
  1.40543400E-16  0.00000000E+00 -1.14762395E+00  1.40543400E-16  0.00000000E+00
 -1.14762395E+00  1.40543400E-16  0.00000000E+00 -1.14762395E+00
Constraint Structure                       R   N=           6
  0.00000000E+00  0.00000000E+00  1.14762395E+00  1.40543400E-16  0.00000000E+00
 -1.14762395E+00
Num ILSW                                   I              100
ILSW                                       I   N=         100
           1           1           0           0           2           0
           0           0           0           0         402          -1
           0           0           0           0           2           0
           0           0           1           0           1           0
           1           0           0           0           0           0
           0           0      100000           0          -1           0
           0           0           0           0           0           0
           0           0           0           1           0           0
           0           0           1           0           0           0
           0           0           4          41           0           0
           0           0           5           0           0           0
           0           0           0           0           0           0
           0           0           0           0           0           0
           0           0           0           0           0           0
           0           0           0           0           0           0
           0           0           0           0           0           0
           0           0           0           0
Num RLSW                                   I               41
RLSW                                       R   N=          41
  8.00000000E-01  7.20000000E-01  1.00000000E+00  8.10000000E-01  2.00000000E-01
  0.00000000E+00  0.00000000E+00  1.00000000E+00  0.00000000E+00  0.00000000E+00
  0.00000000E+00  0.00000000E+00  1.00000000E+00  0.00000000E+00  0.00000000E+00
  0.00000000E+00  0.00000000E+00  1.00000000E+00  0.00000000E+00  0.00000000E+00
  0.00000000E+00  0.00000000E+00  1.00000000E+00  0.00000000E+00  0.00000000E+00
  0.00000000E+00  0.00000000E+00  1.00000000E+00  0.00000000E+00  0.00000000E+00
  0.00000000E+00  0.00000000E+00  1.00000000E+00  0.00000000E+00  0.00000000E+00
  0.00000000E+00  0.00000000E+00  0.00000000E+00  1.00000000E+00  1.00000000E+00
  0.00000000E+00
MxBond                                     I                1
NBond                                      I   N=           2
           1           1
IBond                                      I   N=           2
           2           1
RBond                                      R   N=           2
  2.00000000E+00  2.00000000E+00
Virial Ratio                               R      2.008202294394784E+00
SCF Energy                                 R     -1.503200420756581E+02
Total Energy                               R     -1.503200420756581E+02
S**2                                       R      2.006604816117688E+00
S**2 after annihilation                    R      2.000022858761567E+00
RMS Force                                  R      6.188690125979402E-05
RMS Density                                R      1.089710035175121E-10
External E-field                           R   N=          35
  0.00000000E+00  0.00000000E+00  0.00000000E+00  0.00000000E+00  0.00000000E+00
  0.00000000E+00  0.00000000E+00  0.00000000E+00  0.00000000E+00  0.00000000E+00
  0.00000000E+00  0.00000000E+00  0.00000000E+00  0.00000000E+00  0.00000000E+00
  0.00000000E+00  0.00000000E+00  0.00000000E+00  0.00000000E+00  0.00000000E+00
  0.00000000E+00  0.00000000E+00  0.00000000E+00  0.00000000E+00  0.00000000E+00
  0.00000000E+00  0.00000000E+00  0.00000000E+00  0.00000000E+00  0.00000000E+00
  0.00000000E+00  0.00000000E+00  0.00000000E+00  0.00000000E+00  0.00000000E+00
IOpCl                                      I                1
IROHF                                      I                0
Alpha Orbital Energies                     R   N=          30
 -1.93122725E+01 -1.93120973E+01 -1.30178153E+00 -8.37997821E-01 -5.59384173E-01
 -5.59384173E-01 -5.47411911E-01 -3.08171890E-01 -3.08171890E-01  1.96359076E-01
  6.69547544E-01  7.08632551E-01  7.76765027E-01  7.76765027E-01  8.56394742E-01
  8.95703886E-01  8.95703886E-01  1.27388475E+00  1.48635162E+00  1.48635162E+00
  1.51349293E+00  1.51350291E+00  1.89291912E+00  1.89293139E+00  2.39859770E+00
  2.53519063E+00  2.53519063E+00  2.79546491E+00  3.15411429E+00  3.48734050E+00
Beta Orbital Energies                      R   N=          30
 -1.92829527E+01 -1.92826539E+01 -1.24386708E+00 -7.49331319E-01 -5.07758536E-01
 -4.56930261E-01 -4.56930261E-01 -1.12783826E-01 -1.12783826E-01  2.40596307E-01
  6.88304754E-01  7.26439872E-01  8.32444825E-01  8.32444825E-01  8.68241650E-01
  9.53655951E-01  9.53655951E-01  1.30133485E+00  1.51965521E+00  1.51965521E+00
  1.56922997E+00  1.56923775E+00  1.96452923E+00  1.96453922E+00  2.43474153E+00
  2.57751069E+00  2.57751069E+00  2.82089620E+00  3.19826069E+00  3.53193876E+00
Alpha MO coefficients                      R   N=         900
  7.02056325E-01  1.97500739E-02  0.00000000E+00  0.00000000E+00 -1.24196047E-03
  5.29164145E-03  0.00000000E+00  0.00000000E+00  4.13808188E-04 -5.17609325E-03
 -5.17609325E-03 -5.63226585E-03  0.00000000E+00  0.00000000E+00  0.00000000E+00
  7.02056325E-01  1.97500739E-02  0.00000000E+00  0.00000000E+00  1.24196047E-03
  5.29164145E-03  0.00000000E+00  0.00000000E+00 -4.13808188E-04 -5.17609325E-03
 -5.17609325E-03 -5.63226585E-03  0.00000000E+00  0.00000000E+00  0.00000000E+00
  7.01883733E-01  1.85301720E-02  0.00000000E+00  0.00000000E+00 -7.63521469E-04
  9.93384962E-03  0.00000000E+00  0.00000000E+00 -1.83359256E-03 -5.88113310E-03
 -5.88113310E-03 -5.06340915E-03  0.00000000E+00  0.00000000E+00  0.00000000E+00
 -7.01883733E-01 -1.85301720E-02  0.00000000E+00  0.00000000E+00 -7.63521469E-04
 -9.93384962E-03  0.00000000E+00  0.00000000E+00 -1.83359256E-03  5.88113310E-03
  5.88113310E-03  5.06340915E-03  0.00000000E+00  0.00000000E+00  0.00000000E+00
 -1.53135233E-01  3.63846569E-01  0.00000000E+00  0.00000000E+00 -1.76927927E-01
  2.21823627E-01  0.00000000E+00  0.00000000E+00 -4.23397493E-02 -3.94107798E-03
 -3.94107798E-03  2.82308346E-02  0.00000000E+00  0.00000000E+00  0.00000000E+00
 -1.53135233E-01  3.63846569E-01  0.00000000E+00  0.00000000E+00  1.76927927E-01
  2.21823627E-01  0.00000000E+00  0.00000000E+00  4.23397493E-02 -3.94107798E-03
 -3.94107798E-03  2.82308346E-02  0.00000000E+00  0.00000000E+00  0.00000000E+00
 -1.67206526E-01  3.98242940E-01  0.00000000E+00  0.00000000E+00  1.28196346E-01
  4.73414645E-01  0.00000000E+00  0.00000000E+00  2.77973120E-02  3.50318888E-03
  3.50318888E-03 -2.35442693E-02  0.00000000E+00  0.00000000E+00  0.00000000E+00
  1.67206526E-01 -3.98242940E-01  0.00000000E+00  0.00000000E+00  1.28196346E-01
 -4.73414645E-01  0.00000000E+00  0.00000000E+00  2.77973120E-02 -3.50318888E-03
 -3.50318888E-03  2.35442693E-02  0.00000000E+00  0.00000000E+00  0.00000000E+00
  0.00000000E+00  0.00000000E+00  0.00000000E+00  4.76439275E-01  0.00000000E+00
  0.00000000E+00  0.00000000E+00  2.52115815E-01  0.00000000E+00  0.00000000E+00
  0.00000000E+00  0.00000000E+00  0.00000000E+00  0.00000000E+00 -3.00475942E-02
  0.00000000E+00  0.00000000E+00  0.00000000E+00  4.76439275E-01  0.00000000E+00
  0.00000000E+00  0.00000000E+00  2.52115815E-01  0.00000000E+00  0.00000000E+00
  0.00000000E+00  0.00000000E+00  0.00000000E+00  0.00000000E+00  3.00475942E-02
  0.00000000E+00  0.00000000E+00  4.76439275E-01  0.00000000E+00  0.00000000E+00
  0.00000000E+00  2.52115815E-01  0.00000000E+00  0.00000000E+00  0.00000000E+00
  0.00000000E+00  0.00000000E+00  0.00000000E+00 -3.00475942E-02  0.00000000E+00
  0.00000000E+00  0.00000000E+00  4.76439275E-01  0.00000000E+00  0.00000000E+00
  0.00000000E+00  2.52115815E-01  0.00000000E+00  0.00000000E+00  0.00000000E+00
  0.00000000E+00  0.00000000E+00  0.00000000E+00  3.00475942E-02  0.00000000E+00
 -6.02287208E-02  1.15760673E-01  0.00000000E+00  0.00000000E+00  4.72424566E-01
  2.81373922E-01  0.00000000E+00  0.00000000E+00  2.20031927E-01  3.26890676E-03
  3.26890676E-03 -3.69759543E-02  0.00000000E+00  0.00000000E+00  0.00000000E+00
 -6.02287208E-02  1.15760673E-01  0.00000000E+00  0.00000000E+00 -4.72424566E-01
  2.81373922E-01  0.00000000E+00  0.00000000E+00 -2.20031927E-01  3.26890676E-03
  3.26890676E-03 -3.69759543E-02  0.00000000E+00  0.00000000E+00  0.00000000E+00
  0.00000000E+00  0.00000000E+00  0.00000000E+00  5.45153261E-01  0.00000000E+00
  0.00000000E+00  0.00000000E+00  3.76682812E-01  0.00000000E+00  0.00000000E+00
  0.00000000E+00  0.00000000E+00  0.00000000E+00  0.00000000E+00  6.08290260E-03
  0.00000000E+00  0.00000000E+00  0.00000000E+00 -5.45153261E-01  0.00000000E+00
  0.00000000E+00  0.00000000E+00 -3.76682812E-01  0.00000000E+00  0.00000000E+00
  0.00000000E+00  0.00000000E+00  0.00000000E+00  0.00000000E+00  6.08290260E-03
  0.00000000E+00  0.00000000E+00  5.45153261E-01  0.00000000E+00  0.00000000E+00
  0.00000000E+00  3.76682812E-01  0.00000000E+00  0.00000000E+00  0.00000000E+00
  0.00000000E+00  0.00000000E+00  0.00000000E+00  6.08290260E-03  0.00000000E+00
  0.00000000E+00  0.00000000E+00 -5.45153261E-01  0.00000000E+00  0.00000000E+00
  0.00000000E+00 -3.76682812E-01  0.00000000E+00  0.00000000E+00  0.00000000E+00
  0.00000000E+00  0.00000000E+00  0.00000000E+00  6.08290260E-03  0.00000000E+00
 -8.82966545E-02  2.42349742E-01  0.00000000E+00  0.00000000E+00 -5.27803891E-01
  1.01903120E+00  0.00000000E+00  0.00000000E+00 -9.86494983E-01  1.07652156E-02
  1.07652156E-02 -5.73566399E-03  0.00000000E+00  0.00000000E+00  0.00000000E+00
  8.82966545E-02 -2.42349742E-01  0.00000000E+00  0.00000000E+00 -5.27803891E-01
 -1.01903120E+00  0.00000000E+00  0.00000000E+00 -9.86494983E-01 -1.07652156E-02
 -1.07652156E-02  5.73566399E-03  0.00000000E+00  0.00000000E+00  0.00000000E+00
 -1.63695099E-02 -9.18230290E-01  0.00000000E+00  0.00000000E+00 -1.15415170E-01
  1.39697989E+00  0.00000000E+00  0.00000000E+00  2.60257933E-02 -2.61620350E-01
 -2.61620350E-01 -3.50958084E-01  0.00000000E+00  0.00000000E+00  0.00000000E+00
 -1.63695099E-02 -9.18230290E-01  0.00000000E+00  0.00000000E+00  1.15415170E-01
  1.39697989E+00  0.00000000E+00  0.00000000E+00 -2.60257933E-02 -2.61620350E-01
 -2.61620350E-01 -3.50958084E-01  0.00000000E+00  0.00000000E+00  0.00000000E+00
  2.26743851E-04 -2.79067086E-01  0.00000000E+00  0.00000000E+00 -5.38634093E-01
 -5.95680162E-01  0.00000000E+00  0.00000000E+00  1.43117033E+00 -5.27652257E-02
 -5.27652257E-02 -3.65436855E-01  0.00000000E+00  0.00000000E+00  0.00000000E+00
 -2.26743851E-04  2.79067086E-01  0.00000000E+00  0.00000000E+00 -5.38634093E-01
  5.95680162E-01  0.00000000E+00  0.00000000E+00  1.43117033E+00  5.27652257E-02
  5.27652257E-02  3.65436855E-01  0.00000000E+00  0.00000000E+00  0.00000000E+00
  0.00000000E+00  0.00000000E+00  0.00000000E+00  6.49545451E-01  0.00000000E+00
  0.00000000E+00  0.00000000E+00 -6.39351897E-01  0.00000000E+00  0.00000000E+00
  0.00000000E+00  0.00000000E+00  0.00000000E+00  0.00000000E+00 -6.63169439E-02
  0.00000000E+00  0.00000000E+00  0.00000000E+00  6.49545451E-01  0.00000000E+00
  0.00000000E+00  0.00000000E+00 -6.39351897E-01  0.00000000E+00  0.00000000E+00
  0.00000000E+00  0.00000000E+00  0.00000000E+00  0.00000000E+00  6.63169439E-02
  0.00000000E+00  0.00000000E+00  6.49545451E-01  0.00000000E+00  0.00000000E+00
  0.00000000E+00 -6.39351897E-01  0.00000000E+00  0.00000000E+00  0.00000000E+00
  0.00000000E+00  0.00000000E+00  0.00000000E+00 -6.63169439E-02  0.00000000E+00
  0.00000000E+00  0.00000000E+00  6.49545451E-01  0.00000000E+00  0.00000000E+00
  0.00000000E+00 -6.39351897E-01  0.00000000E+00  0.00000000E+00  0.00000000E+00
  0.00000000E+00  0.00000000E+00  0.00000000E+00  6.63169439E-02  0.00000000E+00
  2.15112581E-02  5.30819043E-02  0.00000000E+00  0.00000000E+00 -5.34377849E-01
  1.21313067E-01  0.00000000E+00  0.00000000E+00  7.95288777E-01 -5.68292292E-02
 -5.68292292E-02  1.75839617E-01  0.00000000E+00  0.00000000E+00  0.00000000E+00
  2.15112581E-02  5.30819043E-02  0.00000000E+00  0.00000000E+00  5.34377849E-01
  1.21313067E-01  0.00000000E+00  0.00000000E+00 -7.95288777E-01 -5.68292292E-02
 -5.68292292E-02  1.75839617E-01  0.00000000E+00  0.00000000E+00  0.00000000E+00
  0.00000000E+00  0.00000000E+00  0.00000000E+00 -6.23967781E-01  0.00000000E+00
  0.00000000E+00  0.00000000E+00  1.07101798E+00  0.00000000E+00  0.00000000E+00
  0.00000000E+00  0.00000000E+00  0.00000000E+00  0.00000000E+00  1.68065053E-03
  0.00000000E+00  0.00000000E+00  0.00000000E+00  6.23967781E-01  0.00000000E+00
  0.00000000E+00  0.00000000E+00 -1.07101798E+00  0.00000000E+00  0.00000000E+00
  0.00000000E+00  0.00000000E+00  0.00000000E+00  0.00000000E+00  1.68065053E-03
  0.00000000E+00  0.00000000E+00 -6.23967781E-01  0.00000000E+00  0.00000000E+00
  0.00000000E+00  1.07101798E+00  0.00000000E+00  0.00000000E+00  0.00000000E+00
  0.00000000E+00  0.00000000E+00  0.00000000E+00  1.68065053E-03  0.00000000E+00
  0.00000000E+00  0.00000000E+00  6.23967781E-01  0.00000000E+00  0.00000000E+00
  0.00000000E+00 -1.07101798E+00  0.00000000E+00  0.00000000E+00  0.00000000E+00
  0.00000000E+00  0.00000000E+00  0.00000000E+00  1.68065053E-03  0.00000000E+00
 -7.03250829E-02 -1.26425759E+00  0.00000000E+00  0.00000000E+00  1.99799951E-01
  4.85125503E+00  0.00000000E+00  0.00000000E+00 -2.34728500E+00 -3.27984951E-01
 -3.27984951E-01 -2.71370977E-01  0.00000000E+00  0.00000000E+00  0.00000000E+00
  7.03250829E-02  1.26425759E+00  0.00000000E+00  0.00000000E+00  1.99799951E-01
 -4.85125503E+00  0.00000000E+00  0.00000000E+00 -2.34728500E+00  3.27984951E-01
  3.27984951E-01  2.71370977E-01  0.00000000E+00  0.00000000E+00  0.00000000E+00
  0.00000000E+00  0.00000000E+00  0.00000000E+00  1.46943758E-01  0.00000000E+00
  0.00000000E+00  0.00000000E+00  2.30840449E-02  0.00000000E+00  0.00000000E+00
  0.00000000E+00  0.00000000E+00  0.00000000E+00  0.00000000E+00  6.05820837E-01
  0.00000000E+00  0.00000000E+00  0.00000000E+00  1.46943758E-01  0.00000000E+00
  0.00000000E+00  0.00000000E+00  2.30840449E-02  0.00000000E+00  0.00000000E+00
  0.00000000E+00  0.00000000E+00  0.00000000E+00  0.00000000E+00 -6.05820837E-01
  0.00000000E+00  0.00000000E+00  1.46943758E-01  0.00000000E+00  0.00000000E+00
  0.00000000E+00  2.30840449E-02  0.00000000E+00  0.00000000E+00  0.00000000E+00
  0.00000000E+00  0.00000000E+00  0.00000000E+00  6.05820837E-01  0.00000000E+00
  0.00000000E+00  0.00000000E+00  1.46943758E-01  0.00000000E+00  0.00000000E+00
  0.00000000E+00  2.30840449E-02  0.00000000E+00  0.00000000E+00  0.00000000E+00
  0.00000000E+00  0.00000000E+00  0.00000000E+00 -6.05820837E-01  0.00000000E+00
  1.27111030E-15 -7.96398798E-15  0.00000000E+00  0.00000000E+00 -1.23842252E-15
  2.53245936E-15  0.00000000E+00  0.00000000E+00  1.85737117E-15  5.78232430E-01
 -5.78232430E-01  7.29172332E-16  0.00000000E+00  0.00000000E+00  0.00000000E+00
  1.27111030E-15 -7.96398798E-15  0.00000000E+00  0.00000000E+00  1.23842252E-15
  2.53245936E-15  0.00000000E+00  0.00000000E+00 -1.85737117E-15  5.78232430E-01
 -5.78232430E-01  7.29172332E-16  0.00000000E+00  0.00000000E+00  0.00000000E+00
  0.00000000E+00  0.00000000E+00  0.00000000E+00  0.00000000E+00  0.00000000E+00
  0.00000000E+00  0.00000000E+00  0.00000000E+00  0.00000000E+00  0.00000000E+00
  0.00000000E+00  0.00000000E+00  6.67685298E-01  0.00000000E+00  0.00000000E+00
  0.00000000E+00  0.00000000E+00  0.00000000E+00  0.00000000E+00  0.00000000E+00
  0.00000000E+00  0.00000000E+00  0.00000000E+00  0.00000000E+00  0.00000000E+00
  0.00000000E+00  0.00000000E+00  6.67685298E-01  0.00000000E+00  0.00000000E+00
  5.55039369E-16 -2.52754998E-14  0.00000000E+00  0.00000000E+00  1.26175349E-14
  5.85882265E-14  0.00000000E+00  0.00000000E+00 -3.04522078E-14  6.53374303E-01
 -6.53374303E-01 -2.02615924E-14  0.00000000E+00  0.00000000E+00  0.00000000E+00
 -5.55039369E-16  2.52754998E-14  0.00000000E+00  0.00000000E+00  1.26175349E-14
 -5.85882265E-14  0.00000000E+00  0.00000000E+00 -3.04522078E-14 -6.53374303E-01
  6.53374303E-01  2.02615924E-14  0.00000000E+00  0.00000000E+00  0.00000000E+00
  0.00000000E+00  0.00000000E+00  0.00000000E+00  0.00000000E+00  0.00000000E+00
  0.00000000E+00  0.00000000E+00  0.00000000E+00  0.00000000E+00  0.00000000E+00
  0.00000000E+00  0.00000000E+00  7.54451660E-01  0.00000000E+00  0.00000000E+00
  0.00000000E+00  0.00000000E+00  0.00000000E+00  0.00000000E+00  0.00000000E+00
  0.00000000E+00  0.00000000E+00  0.00000000E+00  0.00000000E+00  0.00000000E+00
  0.00000000E+00  0.00000000E+00 -7.54451660E-01  0.00000000E+00  0.00000000E+00
  5.07264533E-02  4.81017285E-01  0.00000000E+00  0.00000000E+00 -4.52596636E-01
 -5.48922894E-01  0.00000000E+00  0.00000000E+00  4.59484391E-01  5.73952099E-01
  5.73952099E-01 -5.38814188E-01  0.00000000E+00  0.00000000E+00  0.00000000E+00
  5.07264533E-02  4.81017285E-01  0.00000000E+00  0.00000000E+00  4.52596636E-01
 -5.48922894E-01  0.00000000E+00  0.00000000E+00 -4.59484391E-01  5.73952099E-01
  5.73952099E-01 -5.38814188E-01  0.00000000E+00  0.00000000E+00  0.00000000E+00
  0.00000000E+00  0.00000000E+00  0.00000000E+00 -1.04235675E-02  0.00000000E+00
  0.00000000E+00  0.00000000E+00 -5.00572595E-01  0.00000000E+00  0.00000000E+00
  0.00000000E+00  0.00000000E+00  0.00000000E+00  0.00000000E+00  1.01555148E+00
  0.00000000E+00  0.00000000E+00  0.00000000E+00  1.04235675E-02  0.00000000E+00
  0.00000000E+00  0.00000000E+00  5.00572595E-01  0.00000000E+00  0.00000000E+00
  0.00000000E+00  0.00000000E+00  0.00000000E+00  0.00000000E+00  1.01555148E+00
  0.00000000E+00  0.00000000E+00 -1.04235675E-02  0.00000000E+00  0.00000000E+00
  0.00000000E+00 -5.00572595E-01  0.00000000E+00  0.00000000E+00  0.00000000E+00
  0.00000000E+00  0.00000000E+00  0.00000000E+00  1.01555148E+00  0.00000000E+00
  0.00000000E+00  0.00000000E+00  1.04235675E-02  0.00000000E+00  0.00000000E+00
  0.00000000E+00  5.00572595E-01  0.00000000E+00  0.00000000E+00  0.00000000E+00
  0.00000000E+00  0.00000000E+00  0.00000000E+00  1.01555148E+00  0.00000000E+00
 -3.46895887E-02 -3.96586101E-01  0.00000000E+00  0.00000000E+00 -5.46268119E-01
  3.35717871E+00  0.00000000E+00  0.00000000E+00 -2.21036350E+00 -5.26687162E-01
 -5.26687162E-01  1.43628814E+00  0.00000000E+00  0.00000000E+00  0.00000000E+00
  3.46895887E-02  3.96586101E-01  0.00000000E+00  0.00000000E+00 -5.46268119E-01
 -3.35717871E+00  0.00000000E+00  0.00000000E+00 -2.21036350E+00  5.26687162E-01
  5.26687162E-01 -1.43628814E+00  0.00000000E+00  0.00000000E+00  0.00000000E+00
 -2.87306984E-01  5.16519475E-01  0.00000000E+00  0.00000000E+00 -7.35775934E-02
  1.42543796E+00  0.00000000E+00  0.00000000E+00 -4.59900832E-02 -9.33429797E-01
 -9.33429797E-01 -8.67618262E-01  0.00000000E+00  0.00000000E+00  0.00000000E+00
 -2.87306984E-01  5.16519475E-01  0.00000000E+00  0.00000000E+00  7.35775934E-02
  1.42543796E+00  0.00000000E+00  0.00000000E+00  4.59900832E-02 -9.33429797E-01
 -9.33429797E-01 -8.67618262E-01  0.00000000E+00  0.00000000E+00  0.00000000E+00
 -3.47536212E-01 -2.15092288E-02  0.00000000E+00  0.00000000E+00  1.92925315E-01
  4.11752148E+00  0.00000000E+00  0.00000000E+00 -1.19188700E+00 -1.23719759E+00
 -1.23719759E+00 -1.02617371E+00  0.00000000E+00  0.00000000E+00  0.00000000E+00
  3.47536212E-01  2.15092288E-02  0.00000000E+00  0.00000000E+00  1.92925315E-01
 -4.11752148E+00  0.00000000E+00  0.00000000E+00 -1.19188700E+00  1.23719759E+00
  1.23719759E+00  1.02617371E+00  0.00000000E+00  0.00000000E+00  0.00000000E+00
Beta MO coefficients                       R   N=         900
  7.02396655E-01  1.85524286E-02  0.00000000E+00  0.00000000E+00 -1.16722051E-03
  4.64226636E-03  0.00000000E+00  0.00000000E+00  3.64660500E-04 -4.77159357E-03
 -4.77159357E-03 -4.92836720E-03  0.00000000E+00  0.00000000E+00  0.00000000E+00
  7.02396655E-01  1.85524286E-02  0.00000000E+00  0.00000000E+00  1.16722051E-03
  4.64226636E-03  0.00000000E+00  0.00000000E+00 -3.64660500E-04 -4.77159357E-03
 -4.77159357E-03 -4.92836720E-03  0.00000000E+00  0.00000000E+00  0.00000000E+00
  7.02261925E-01  1.75461144E-02  0.00000000E+00  0.00000000E+00 -8.88827174E-04
  8.76133461E-03  0.00000000E+00  0.00000000E+00 -1.76985150E-03 -5.40155851E-03
 -5.40155851E-03 -4.18266535E-03  0.00000000E+00  0.00000000E+00  0.00000000E+00
 -7.02261925E-01 -1.75461144E-02  0.00000000E+00  0.00000000E+00 -8.88827174E-04
 -8.76133461E-03  0.00000000E+00  0.00000000E+00 -1.76985150E-03  5.40155851E-03
  5.40155851E-03  4.18266535E-03  0.00000000E+00  0.00000000E+00  0.00000000E+00
 -1.49679002E-01  3.42023561E-01  0.00000000E+00  0.00000000E+00 -1.88503774E-01
  2.26244555E-01  0.00000000E+00  0.00000000E+00 -5.14899899E-02 -8.55273213E-03
 -8.55273213E-03  3.78367735E-02  0.00000000E+00  0.00000000E+00  0.00000000E+00
 -1.49679002E-01  3.42023561E-01  0.00000000E+00  0.00000000E+00  1.88503774E-01
  2.26244555E-01  0.00000000E+00  0.00000000E+00  5.14899899E-02 -8.55273213E-03
 -8.55273213E-03  3.78367735E-02  0.00000000E+00  0.00000000E+00  0.00000000E+00
 -1.63644509E-01  3.78698803E-01  0.00000000E+00  0.00000000E+00  1.37444478E-01
  4.81376258E-01  0.00000000E+00  0.00000000E+00  4.23676700E-02 -2.09516302E-03
 -2.09516302E-03 -1.23578209E-02  0.00000000E+00  0.00000000E+00  0.00000000E+00
  1.63644509E-01 -3.78698803E-01  0.00000000E+00  0.00000000E+00  1.37444478E-01
 -4.81376258E-01  0.00000000E+00  0.00000000E+00  4.23676700E-02  2.09516302E-03
  2.09516302E-03  1.23578209E-02  0.00000000E+00  0.00000000E+00  0.00000000E+00
 -6.46027574E-02  1.14854934E-01  0.00000000E+00  0.00000000E+00  4.62344073E-01
  3.05554393E-01  0.00000000E+00  0.00000000E+00  2.24843648E-01 -2.42401975E-03
 -2.42401975E-03 -3.42820541E-02  0.00000000E+00  0.00000000E+00  0.00000000E+00
 -6.46027574E-02  1.14854934E-01  0.00000000E+00  0.00000000E+00 -4.62344073E-01
  3.05554393E-01  0.00000000E+00  0.00000000E+00 -2.24843648E-01 -2.42401975E-03
 -2.42401975E-03 -3.42820541E-02  0.00000000E+00  0.00000000E+00  0.00000000E+00
  0.00000000E+00  0.00000000E+00  4.43787885E-01  0.00000000E+00  0.00000000E+00
  0.00000000E+00  2.80403805E-01  0.00000000E+00  0.00000000E+00  0.00000000E+00
  0.00000000E+00  0.00000000E+00  0.00000000E+00 -3.78178323E-02  0.00000000E+00
  0.00000000E+00  0.00000000E+00  4.43787885E-01  0.00000000E+00  0.00000000E+00
  0.00000000E+00  2.80403805E-01  0.00000000E+00  0.00000000E+00  0.00000000E+00
  0.00000000E+00  0.00000000E+00  0.00000000E+00  3.78178323E-02  0.00000000E+00
  0.00000000E+00  0.00000000E+00  0.00000000E+00  4.43787885E-01  0.00000000E+00
  0.00000000E+00  0.00000000E+00  2.80403805E-01  0.00000000E+00  0.00000000E+00
  0.00000000E+00  0.00000000E+00  0.00000000E+00  0.00000000E+00 -3.78178323E-02
  0.00000000E+00  0.00000000E+00  0.00000000E+00  4.43787885E-01  0.00000000E+00
  0.00000000E+00  0.00000000E+00  2.80403805E-01  0.00000000E+00  0.00000000E+00
  0.00000000E+00  0.00000000E+00  0.00000000E+00  0.00000000E+00  3.78178323E-02
  0.00000000E+00  0.00000000E+00  5.10687307E-01  0.00000000E+00  0.00000000E+00
  0.00000000E+00  4.33739870E-01  0.00000000E+00  0.00000000E+00  0.00000000E+00
  0.00000000E+00  0.00000000E+00  0.00000000E+00  6.53787188E-03  0.00000000E+00
  0.00000000E+00  0.00000000E+00 -5.10687307E-01  0.00000000E+00  0.00000000E+00
  0.00000000E+00 -4.33739870E-01  0.00000000E+00  0.00000000E+00  0.00000000E+00
  0.00000000E+00  0.00000000E+00  0.00000000E+00  6.53787188E-03  0.00000000E+00
  0.00000000E+00  0.00000000E+00  0.00000000E+00  5.10687307E-01  0.00000000E+00
  0.00000000E+00  0.00000000E+00  4.33739870E-01  0.00000000E+00  0.00000000E+00
  0.00000000E+00  0.00000000E+00  0.00000000E+00  0.00000000E+00  6.53787188E-03
  0.00000000E+00  0.00000000E+00  0.00000000E+00 -5.10687307E-01  0.00000000E+00
  0.00000000E+00  0.00000000E+00 -4.33739870E-01  0.00000000E+00  0.00000000E+00
  0.00000000E+00  0.00000000E+00  0.00000000E+00  0.00000000E+00  6.53787188E-03
 -9.42326108E-02  2.42758298E-01  0.00000000E+00  0.00000000E+00 -5.11085577E-01
  1.11785050E+00  0.00000000E+00  0.00000000E+00 -1.05053562E+00  7.26693105E-03
  7.26693105E-03  1.97809495E-03  0.00000000E+00  0.00000000E+00  0.00000000E+00
  9.42326108E-02 -2.42758298E-01  0.00000000E+00  0.00000000E+00 -5.11085577E-01
 -1.11785050E+00  0.00000000E+00  0.00000000E+00 -1.05053562E+00 -7.26693105E-03
 -7.26693105E-03 -1.97809495E-03  0.00000000E+00  0.00000000E+00  0.00000000E+00
 -1.76683545E-02 -9.19148705E-01  0.00000000E+00  0.00000000E+00 -9.26909463E-02
  1.39376173E+00  0.00000000E+00  0.00000000E+00 -1.50407478E-02 -2.64269524E-01
 -2.64269524E-01 -3.67539552E-01  0.00000000E+00  0.00000000E+00  0.00000000E+00
 -1.76683545E-02 -9.19148705E-01  0.00000000E+00  0.00000000E+00  9.26909463E-02
  1.39376173E+00  0.00000000E+00  0.00000000E+00  1.50407478E-02 -2.64269524E-01